
===
=== NSC g16 WRAPPER, version: 1.0
===
=== This invokation of Gaussian is made via an NSC wrapper script
=== with the primary purpose of adjusting parallelization settings
=== and to discover input errors. The bare Gaussian binary is available
=== with the suffix '.orig'
===
=== NSC g16 WRAPPER: Running Gaussian in stdin mode
 Entering Gaussian System, Link 0=/software/sse/easybuild/prefix/software/Gaussian/16.C.01-avx2-nsc1/g16/g16.orig
 Initial command:
 /software/sse/easybuild/prefix/software/Gaussian/16.C.01-avx2-nsc1/g16/l1.exe "/scratch/local/Gau-23671.inp" -scrdir="/scratch/local/"
 Entering Link 1 = /software/sse/easybuild/prefix/software/Gaussian/16.C.01-avx2-nsc1/g16/l1.exe PID=     23673.
  
 Copyright (c) 1988-2019, Gaussian, Inc.  All Rights Reserved.
  
 This is part of the Gaussian(R) 16 program.  It is based on
 the Gaussian(R) 09 system (copyright 2009, Gaussian, Inc.),
 the Gaussian(R) 03 system (copyright 2003, Gaussian, Inc.),
 the Gaussian(R) 98 system (copyright 1998, Gaussian, Inc.),
 the Gaussian(R) 94 system (copyright 1995, Gaussian, Inc.),
 the Gaussian 92(TM) system (copyright 1992, Gaussian, Inc.),
 the Gaussian 90(TM) system (copyright 1990, Gaussian, Inc.),
 the Gaussian 88(TM) system (copyright 1988, Gaussian, Inc.),
 the Gaussian 86(TM) system (copyright 1986, Carnegie Mellon
 University), and the Gaussian 82(TM) system (copyright 1983,
 Carnegie Mellon University). Gaussian is a federally registered
 trademark of Gaussian, Inc.
  
 This software contains proprietary and confidential information,
 including trade secrets, belonging to Gaussian, Inc.
  
 This software is provided under written license and may be
 used, copied, transmitted, or stored only in accord with that
 written license.
  
 The following legend is applicable only to US Government
 contracts under FAR:
  
                    RESTRICTED RIGHTS LEGEND
  
 Use, reproduction and disclosure by the US Government is
 subject to restrictions as set forth in subparagraphs (a)
 and (c) of the Commercial Computer Software - Restricted
 Rights clause in FAR 52.227-19.
  
 Gaussian, Inc.
 340 Quinnipiac St., Bldg. 40, Wallingford CT 06492
  
  
 ---------------------------------------------------------------
 Warning -- This program may not be used in any manner that
 competes with the business of Gaussian, Inc. or will provide
 assistance to any competitor of Gaussian, Inc.  The licensee
 of this program is prohibited from giving any competitor of
 Gaussian, Inc. access to this program.  By using this program,
 the user acknowledges that Gaussian, Inc. is engaged in the
 business of creating and licensing software in the field of
 computational chemistry and represents and warrants to the
 licensee that it is not a competitor of Gaussian, Inc. and that
 it will not use this program in any manner prohibited above.
 ---------------------------------------------------------------
  

 Cite this work as:
 Gaussian 16, Revision C.01,
 M. J. Frisch, G. W. Trucks, H. B. Schlegel, G. E. Scuseria, 
 M. A. Robb, J. R. Cheeseman, G. Scalmani, V. Barone, 
 G. A. Petersson, H. Nakatsuji, X. Li, M. Caricato, A. V. Marenich, 
 J. Bloino, B. G. Janesko, R. Gomperts, B. Mennucci, H. P. Hratchian, 
 J. V. Ortiz, A. F. Izmaylov, J. L. Sonnenberg, D. Williams-Young, 
 F. Ding, F. Lipparini, F. Egidi, J. Goings, B. Peng, A. Petrone, 
 T. Henderson, D. Ranasinghe, V. G. Zakrzewski, J. Gao, N. Rega, 
 G. Zheng, W. Liang, M. Hada, M. Ehara, K. Toyota, R. Fukuda, 
 J. Hasegawa, M. Ishida, T. Nakajima, Y. Honda, O. Kitao, H. Nakai, 
 T. Vreven, K. Throssell, J. A. Montgomery, Jr., J. E. Peralta, 
 F. Ogliaro, M. J. Bearpark, J. J. Heyd, E. N. Brothers, K. N. Kudin, 
 V. N. Staroverov, T. A. Keith, R. Kobayashi, J. Normand, 
 K. Raghavachari, A. P. Rendell, J. C. Burant, S. S. Iyengar, 
 J. Tomasi, M. Cossi, J. M. Millam, M. Klene, C. Adamo, R. Cammi, 
 J. W. Ochterski, R. L. Martin, K. Morokuma, O. Farkas, 
 J. B. Foresman, and D. J. Fox, Gaussian, Inc., Wallingford CT, 2019.
 
 ******************************************
 Gaussian 16:  ES64L-G16RevC.01  3-Jul-2019
                10-Aug-2021 
 ******************************************
 %chk=8e.chk
 %mem=48GB
 %NProcShared=10
 Will use up to   10 processors via shared memory.
 ----------------------------------------------------------------------
 #P B3LYP/6-311++G(2d,p) scf=tight Int=Ultrafine scrf(Solvent=DiMethylS
 ulfoxide) NMR
 ----------------------------------------------------------------------
 1/38=1,172=1/1;
 2/12=2,17=6,18=5,40=1/2;
 3/5=4,6=6,7=1112,11=2,25=1,30=1,70=2201,72=21,74=-5,75=-5/1,2,3,8;
 4//1;
 5/5=2,32=2,38=5,53=21/2;
 8/6=1,10=90,11=11/1;
 10/13=100,45=16/2;
 6/7=2,8=2,9=2,10=2,28=1/1;
 99/9=1/99;
 Leave Link    1 at Tue Aug 10 18:37:24 2021, MaxMem=  6442450944 cpu:               1.3 elap:               0.2
 (Enter /software/sse/easybuild/prefix/software/Gaussian/16.C.01-avx2-nsc1/g16/l101.exe)
 --
 8e
 --
 Symbolic Z-matrix:
 Charge =  0 Multiplicity = 1
 C                     21.782    29.412    26.299 
 H                     21.3      29.797    25.392 
 H                     22.846    29.669    26.37 
 H                     21.712    28.318    26.337 
 C                     21.2      30.045    27.552 
 C                     21.067    31.499    27.191 
 H                     22.007    31.976    26.887 
 H                     20.327    31.799    26.439 
 H                     20.729    32.078    28.058 
 C                     19.828    29.566    28.029 
 H                     19.767    28.473    27.963 
 H                     19.698    29.807    29.092 
 H                     19.098    30.068    27.384 
 O                     22.137    29.991    28.576 
 C                     22.505    28.836    29.119 
 O                     22.134    27.745    28.742 
 N                     23.453    29.125    30.051 
 H                     23.804    30.074    30.085 
 C                     24.03     28.19     31.02 
 C                     24.808    28.847    32.174 
 N                     25.187    30.168    32.011 
 H                     25.077    30.518    31.068 
 O                     24.991    28.189    33.194 
 H                     23.143    27.815    31.545 
 C                     24.681    26.923    30.408 
 H                     23.867    26.432    29.861 
 H                     24.966    26.241    31.219 
 C                     25.948    27.275    29.66 
 C                     25.874    27.887    28.448 
 C                     27.161    28.385    27.963 
 H                     27.047    28.984    27.064 
 H                     24.994    28.33     27.99 
 C                     27.13     26.865    30.275 
 H                     27.134    26.211    31.142 
 C                     28.352    27.4      29.775 
 H                     29.268    27.157    30.306 
 C                     28.363    28.18     28.619 
 O                     29.487    28.842    28.17 
 C                     29.6      30.136    28.428 
 C                     29.88     30.471    29.742 
 C                     29.475    31.774    30.125 
 H                     29.731    32.012    31.154 
 H                     30.281    29.745    30.444 
 C                     29.131    31.072    27.514 
 H                     28.94     30.692    26.515 
 C                     28.696    32.371    27.948 
 H                     28.241    33.008    27.195 
 C                     28.854    32.7      29.298 
 C                     28.208    33.881    29.944 
 O                     27.904    34.909    29.3 
 C                     27.687    33.757    31.415 
 H                     28.564    33.486    32.017 
 H                     27.296    34.757    31.64 
 N                     26.617    32.707    31.529 
 H                     26.633    31.909    30.905 
 C                     25.938    32.471    32.705 
 O                     25.577    33.336    33.466 
 C                     25.735    31.028    33.052 
 H                     25.008    31.091    33.871 
 C                     27.02     30.488    33.599 
 C                     27.188    30.356    35.006 
 H                     26.414    30.717    35.676 
 C                     28.407    29.88     35.446 
 H                     28.54     30.027    36.513 
 C                     29.506    29.59     34.617 
 H                     30.429    29.179    35.016 
 C                     29.312    29.642    33.204 
 H                     30.068    29.328    32.491 
 C                     28.028    30.058    32.758 
 H                     27.887    30.161    31.686 
 C                     24.995    31.806    26.758 
 H                     24.571    32.666    26.224 
 H                     24.778    30.832    26.302 
 H                     26.084    31.931    26.789 
 S                     24.453    31.858    28.483 
 C                     24.724    33.662    28.499 
 H                     24.017    34.289    27.943 
 H                     25.729    33.854    28.104 
 H                     24.76     34.052    29.524 
 O                     25.5      31.352    29.436 
 
 ITRead=  0  0  0  0  0  0  0  0  0  0  0  0  0  0  0  0  0  0  0  0
 ITRead=  0  0  0  0  0  0  0  0  0  0  0  0  0  0  0  0  0  0  0  0
 ITRead=  0  0  0  0  0  0  0  0  0  0  0  0  0  0  0  0  0  0  0  0
 ITRead=  0  0  0  0  0  0  0  0  0  0  0  0  0  0  0  0  0  0  0  0
 MicOpt= -1 -1 -1 -1 -1 -1 -1 -1 -1 -1 -1 -1 -1 -1 -1 -1 -1 -1 -1 -1
 MicOpt= -1 -1 -1 -1 -1 -1 -1 -1 -1 -1 -1 -1 -1 -1 -1 -1 -1 -1 -1 -1
 MicOpt= -1 -1 -1 -1 -1 -1 -1 -1 -1 -1 -1 -1 -1 -1 -1 -1 -1 -1 -1 -1
 MicOpt= -1 -1 -1 -1 -1 -1 -1 -1 -1 -1 -1 -1 -1 -1 -1 -1 -1 -1 -1 -1
 NAtoms=     80 NQM=       80 NQMF=       0 NMMI=      0 NMMIF=      0
                NMic=       0 NMicF=      0.
                    Isotopes and Nuclear Properties:
 (Nuclear quadrupole moments (NQMom) in fm**2, nuclear magnetic moments (NMagM)
  in nuclear magnetons)

  Atom         1           2           3           4           5           6           7           8           9          10
 IAtWgt=          12           1           1           1          12          12           1           1           1          12
 AtmWgt=  12.0000000   1.0078250   1.0078250   1.0078250  12.0000000  12.0000000   1.0078250   1.0078250   1.0078250  12.0000000
 NucSpn=           0           1           1           1           0           0           1           1           1           0
 AtZEff=  -0.0000000  -0.0000000  -0.0000000  -0.0000000  -0.0000000  -0.0000000  -0.0000000  -0.0000000  -0.0000000  -0.0000000
 NQMom=    0.0000000   0.0000000   0.0000000   0.0000000   0.0000000   0.0000000   0.0000000   0.0000000   0.0000000   0.0000000
 NMagM=    0.0000000   2.7928460   2.7928460   2.7928460   0.0000000   0.0000000   2.7928460   2.7928460   2.7928460   0.0000000
 AtZNuc=   6.0000000   1.0000000   1.0000000   1.0000000   6.0000000   6.0000000   1.0000000   1.0000000   1.0000000   6.0000000

  Atom        11          12          13          14          15          16          17          18          19          20
 IAtWgt=           1           1           1          16          12          16          14           1          12          12
 AtmWgt=   1.0078250   1.0078250   1.0078250  15.9949146  12.0000000  15.9949146  14.0030740   1.0078250  12.0000000  12.0000000
 NucSpn=           1           1           1           0           0           0           2           1           0           0
 AtZEff=  -0.0000000  -0.0000000  -0.0000000  -0.0000000  -0.0000000  -0.0000000  -0.0000000  -0.0000000  -0.0000000  -0.0000000
 NQMom=    0.0000000   0.0000000   0.0000000   0.0000000   0.0000000   0.0000000   2.0440000   0.0000000   0.0000000   0.0000000
 NMagM=    2.7928460   2.7928460   2.7928460   0.0000000   0.0000000   0.0000000   0.4037610   2.7928460   0.0000000   0.0000000
 AtZNuc=   1.0000000   1.0000000   1.0000000   8.0000000   6.0000000   8.0000000   7.0000000   1.0000000   6.0000000   6.0000000

  Atom        21          22          23          24          25          26          27          28          29          30
 IAtWgt=          14           1          16           1          12           1           1          12          12          12
 AtmWgt=  14.0030740   1.0078250  15.9949146   1.0078250  12.0000000   1.0078250   1.0078250  12.0000000  12.0000000  12.0000000
 NucSpn=           2           1           0           1           0           1           1           0           0           0
 AtZEff=  -0.0000000  -0.0000000  -0.0000000  -0.0000000  -0.0000000  -0.0000000  -0.0000000  -0.0000000  -0.0000000  -0.0000000
 NQMom=    2.0440000   0.0000000   0.0000000   0.0000000   0.0000000   0.0000000   0.0000000   0.0000000   0.0000000   0.0000000
 NMagM=    0.4037610   2.7928460   0.0000000   2.7928460   0.0000000   2.7928460   2.7928460   0.0000000   0.0000000   0.0000000
 AtZNuc=   7.0000000   1.0000000   8.0000000   1.0000000   6.0000000   1.0000000   1.0000000   6.0000000   6.0000000   6.0000000

  Atom        31          32          33          34          35          36          37          38          39          40
 IAtWgt=           1           1          12           1          12           1          12          16          12          12
 AtmWgt=   1.0078250   1.0078250  12.0000000   1.0078250  12.0000000   1.0078250  12.0000000  15.9949146  12.0000000  12.0000000
 NucSpn=           1           1           0           1           0           1           0           0           0           0
 AtZEff=  -0.0000000  -0.0000000  -0.0000000  -0.0000000  -0.0000000  -0.0000000  -0.0000000  -0.0000000  -0.0000000  -0.0000000
 NQMom=    0.0000000   0.0000000   0.0000000   0.0000000   0.0000000   0.0000000   0.0000000   0.0000000   0.0000000   0.0000000
 NMagM=    2.7928460   2.7928460   0.0000000   2.7928460   0.0000000   2.7928460   0.0000000   0.0000000   0.0000000   0.0000000
 AtZNuc=   1.0000000   1.0000000   6.0000000   1.0000000   6.0000000   1.0000000   6.0000000   8.0000000   6.0000000   6.0000000

  Atom        41          42          43          44          45          46          47          48          49          50
 IAtWgt=          12           1           1          12           1          12           1          12          12          16
 AtmWgt=  12.0000000   1.0078250   1.0078250  12.0000000   1.0078250  12.0000000   1.0078250  12.0000000  12.0000000  15.9949146
 NucSpn=           0           1           1           0           1           0           1           0           0           0
 AtZEff=  -0.0000000  -0.0000000  -0.0000000  -0.0000000  -0.0000000  -0.0000000  -0.0000000  -0.0000000  -0.0000000  -0.0000000
 NQMom=    0.0000000   0.0000000   0.0000000   0.0000000   0.0000000   0.0000000   0.0000000   0.0000000   0.0000000   0.0000000
 NMagM=    0.0000000   2.7928460   2.7928460   0.0000000   2.7928460   0.0000000   2.7928460   0.0000000   0.0000000   0.0000000
 AtZNuc=   6.0000000   1.0000000   1.0000000   6.0000000   1.0000000   6.0000000   1.0000000   6.0000000   6.0000000   8.0000000

  Atom        51          52          53          54          55          56          57          58          59          60
 IAtWgt=          12           1           1          14           1          12          16          12           1          12
 AtmWgt=  12.0000000   1.0078250   1.0078250  14.0030740   1.0078250  12.0000000  15.9949146  12.0000000   1.0078250  12.0000000
 NucSpn=           0           1           1           2           1           0           0           0           1           0
 AtZEff=  -0.0000000  -0.0000000  -0.0000000  -0.0000000  -0.0000000  -0.0000000  -0.0000000  -0.0000000  -0.0000000  -0.0000000
 NQMom=    0.0000000   0.0000000   0.0000000   2.0440000   0.0000000   0.0000000   0.0000000   0.0000000   0.0000000   0.0000000
 NMagM=    0.0000000   2.7928460   2.7928460   0.4037610   2.7928460   0.0000000   0.0000000   0.0000000   2.7928460   0.0000000
 AtZNuc=   6.0000000   1.0000000   1.0000000   7.0000000   1.0000000   6.0000000   8.0000000   6.0000000   1.0000000   6.0000000

  Atom        61          62          63          64          65          66          67          68          69          70
 IAtWgt=          12           1          12           1          12           1          12           1          12           1
 AtmWgt=  12.0000000   1.0078250  12.0000000   1.0078250  12.0000000   1.0078250  12.0000000   1.0078250  12.0000000   1.0078250
 NucSpn=           0           1           0           1           0           1           0           1           0           1
 AtZEff=  -0.0000000  -0.0000000  -0.0000000  -0.0000000  -0.0000000  -0.0000000  -0.0000000  -0.0000000  -0.0000000  -0.0000000
 NQMom=    0.0000000   0.0000000   0.0000000   0.0000000   0.0000000   0.0000000   0.0000000   0.0000000   0.0000000   0.0000000
 NMagM=    0.0000000   2.7928460   0.0000000   2.7928460   0.0000000   2.7928460   0.0000000   2.7928460   0.0000000   2.7928460
 AtZNuc=   6.0000000   1.0000000   6.0000000   1.0000000   6.0000000   1.0000000   6.0000000   1.0000000   6.0000000   1.0000000

  Atom        71          72          73          74          75          76          77          78          79          80
 IAtWgt=          12           1           1           1          32          12           1           1           1          16
 AtmWgt=  12.0000000   1.0078250   1.0078250   1.0078250  31.9720718  12.0000000   1.0078250   1.0078250   1.0078250  15.9949146
 NucSpn=           0           1           1           1           0           0           1           1           1           0
 AtZEff=  -0.0000000  -0.0000000  -0.0000000  -0.0000000  -0.0000000  -0.0000000  -0.0000000  -0.0000000  -0.0000000  -0.0000000
 NQMom=    0.0000000   0.0000000   0.0000000   0.0000000   0.0000000   0.0000000   0.0000000   0.0000000   0.0000000   0.0000000
 NMagM=    0.0000000   2.7928460   2.7928460   2.7928460   0.0000000   0.0000000   2.7928460   2.7928460   2.7928460   0.0000000
 AtZNuc=   6.0000000   1.0000000   1.0000000   1.0000000  16.0000000   6.0000000   1.0000000   1.0000000   1.0000000   8.0000000
 Leave Link  101 at Tue Aug 10 18:37:25 2021, MaxMem=  6442450944 cpu:               2.1 elap:               0.3
 (Enter /software/sse/easybuild/prefix/software/Gaussian/16.C.01-avx2-nsc1/g16/l202.exe)
 Stoichiometry    C32H37N3O7S
 Framework group  C1[X(C32H37N3O7S)]
 Deg. of freedom   234
 Full point group                 C1      NOp   1
 Largest Abelian subgroup         C1      NOp   1
 Largest concise Abelian subgroup C1      NOp   1
                         Standard orientation:                         
 ---------------------------------------------------------------------
 Center     Atomic      Atomic             Coordinates (Angstroms)
 Number     Number       Type             X           Y           Z
 ---------------------------------------------------------------------
      1          6           0        5.632510    0.412579    0.761218
      2          1           0        6.478431    1.110656    0.778664
      3          1           0        4.684074    0.868993    1.069996
      4          1           0        5.817371   -0.432681    1.435416
      5          6           0        5.331257   -0.064141   -0.649953
      6          6           0        5.443176    1.183809   -1.481953
      7          1           0        4.774380    1.995459   -1.169730
      8          1           0        6.426817    1.648784   -1.621062
      9          1           0        5.162433    0.976197   -2.520824
     10          6           0        6.259528   -1.110138   -1.269278
     11          1           0        6.494428   -1.888127   -0.532880
     12          1           0        5.745218   -1.624826   -2.091184
     13          1           0        7.148322   -0.560004   -1.598404
     14          8           0        4.001811   -0.458312   -0.731552
     15          6           0        3.555495   -1.530196   -0.086447
     16          8           0        4.217005   -2.206470    0.671910
     17          7           0        2.221414   -1.613354   -0.339756
     18          1           0        1.785469   -0.836212   -0.820337
     19          6           0        1.337707   -2.724584    0.021275
     20          6           0       -0.029489   -2.724384   -0.685423
     21          7           0       -0.429843   -1.545493   -1.289723
     22          1           0        0.135086   -0.741929   -1.046840
     23          8           0       -0.655250   -3.779490   -0.730448
     24          1           0        1.826782   -3.581774   -0.457320
     25          6           0        1.313415   -3.085927    1.528748
     26          1           0        2.351663   -3.348033    1.765874
     27          1           0        0.722792   -4.000309    1.667091
     28          6           0        0.638666   -1.997219    2.333812
     29          6           0        1.287388   -0.825902    2.570746
     30          6           0        0.430817    0.214022    3.140340
     31          1           0        0.940902    1.171780    3.190432
     32          1           0        2.203924   -0.477839    2.102523
     33          6           0       -0.617402   -2.329081    2.839389
     34          1           0       -1.011931   -3.339699    2.790206
     35          6           0       -1.417281   -1.271884    3.360960
     36          1           0       -2.430932   -1.507743    3.672326
     37          6           0       -0.892188    0.013001    3.495896
     38          8           0       -1.656998    1.103178    3.856170
     39          6           0       -2.068172    1.925676    2.903173
     40          6           0       -3.071068    1.445764    2.077878
     41          6           0       -3.127026    2.046264    0.795385
     42          1           0       -3.939279    1.663378    0.183287
     43          1           0       -3.690701    0.600114    2.363555
     44          6           0       -1.303792    3.035493    2.563351
     45          1           0       -0.542296    3.314973    3.285085
     46          6           0       -1.362787    3.592934    1.240189
     47          1           0       -0.658480    4.388902    1.016156
     48          6           0       -2.284552    3.050762    0.339020
     49          6           0       -2.271525    3.329679   -1.127755
     50          8           0       -1.804661    4.389343   -1.600075
     51          6           0       -2.640906    2.182354   -2.126686
     52          1           0       -3.658015    1.870932   -1.855621
     53          1           0       -2.579808    2.662077   -3.111388
     54          7           0       -1.682398    1.029609   -2.013408
     55          1           0       -1.241886    0.833130   -1.122465
     56          6           0       -1.743460   -0.064803   -2.849025
     57          8           0       -1.985414   -0.004517   -4.030332
     58          6           0       -1.573031   -1.394547   -2.180743
     59          1           0       -1.437579   -2.064642   -3.038582
     60          6           0       -2.858459   -1.749677   -1.499869
     61          6           0       -3.757469   -2.661645   -2.120672
     62          1           0       -3.541334   -3.035665   -3.116507
     63          6           0       -4.938113   -2.923488   -1.454598
     64          1           0       -5.657992   -3.432427   -2.087484
     65          6           0       -5.342908   -2.304532   -0.257863
     66          1           0       -6.266453   -2.580300    0.243201
     67          6           0       -4.408362   -1.455098    0.406969
     68          1           0       -4.592278   -1.025505    1.386828
     69          6           0       -3.162848   -1.252568   -0.247482
     70          1           0       -2.467536   -0.559768    0.217535
     71          6           0        2.413648    2.825742    0.476862
     72          1           0        2.941007    3.659588   -0.003893
     73          1           0        2.976483    2.328840    1.276864
     74          1           0        1.484717    3.217363    0.908401
     75         16           0        1.897047    1.645126   -0.792535
     76          6           0        1.420835    3.036207   -1.872455
     77          1           0        2.224512    3.629965   -2.323756
     78          1           0        0.787660    3.714043   -1.287185
     79          1           0        0.770955    2.702657   -2.691245
     80          8           0        0.577819    0.995705   -0.478927
 ---------------------------------------------------------------------
 Rotational constants (GHZ):           0.1018293           0.0682214           0.0630774
 Leave Link  202 at Tue Aug 10 18:37:25 2021, MaxMem=  6442450944 cpu:               0.5 elap:               0.1
 (Enter /software/sse/easybuild/prefix/software/Gaussian/16.C.01-avx2-nsc1/g16/l301.exe)
 Standard basis: 6-311++G(2d,p) (5D, 7F)
 Ernie: Thresh=  0.10000D-02 Tol=  0.10000D-05 Strict=F.
 There are  1514 symmetry adapted cartesian basis functions of A   symmetry.
 There are  1428 symmetry adapted basis functions of A   symmetry.
  1428 basis functions,  2153 primitive gaussians,  1514 cartesian basis functions
   161 alpha electrons      161 beta electrons
       nuclear repulsion energy      6013.9255169731 Hartrees.
 IExCor=  402 DFT=T Ex+Corr=B3LYP ExCW=0 ScaHFX=  0.200000
 ScaDFX=  0.800000  0.720000  1.000000  0.810000 ScalE2=  1.000000  1.000000
 IRadAn=      5 IRanWt=     -1 IRanGd=            0 ICorTp=0 IEmpDi=  4
 NAtoms=   80 NActive=   80 NUniq=   80 SFac= 1.00D+00 NAtFMM=   60 NAOKFM=T Big=T
 Integral buffers will be    131072 words long.
 Raffenetti 2 integral format.
 Two-electron integral symmetry is turned on.
 ------------------------------------------------------------------------------
 Polarizable Continuum Model (PCM)
 =================================
 Model                : PCM.
 Atomic radii         : UFF (Universal Force Field).
 Polarization charges : Total charges.
 Charge compensation  : None.
 Solution method      : On-the-fly selection.
 Cavity type          : Scaled VdW (van der Waals Surface) (Alpha=1.100).
 Cavity algorithm     : GePol (No added spheres)
                        Default sphere list used, NSphG=   80.
                        Lebedev-Laikov grids with approx.  5.0 points / Ang**2.
                        Smoothing algorithm: York/Karplus (Gamma=1.0000).
                        Polarization charges: spherical gaussians, with
                                              point-specific exponents (IZeta= 3).
                        Self-potential: point-specific (ISelfS= 7).
                        Self-field    : sphere-specific E.n sum rule (ISelfD= 2).
 Solvent              : DiMethylSulfoxide, Eps=  46.826000 Eps(inf)=   2.007889
 ------------------------------------------------------------------------------
 GePol: Number of generator spheres                  =      80
 GePol: Total number of spheres                      =      80
 GePol: Number of exposed spheres                    =      80 (100.00%)
 GePol: Number of points                             =    4871
 GePol: Average weight of points                     =       0.12
 GePol: Minimum weight of points                     =   0.56D-11
 GePol: Maximum weight of points                     =    0.20577
 GePol: Number of points with low weight             =     377
 GePol: Fraction of low-weight points (<1% of avg)   =       7.74%
 GePol: Cavity surface area                          =    599.116 Ang**2
 GePol: Cavity volume                                =    795.120 Ang**3
 Leave Link  301 at Tue Aug 10 18:37:26 2021, MaxMem=  6442450944 cpu:               1.5 elap:               0.3
 (Enter /software/sse/easybuild/prefix/software/Gaussian/16.C.01-avx2-nsc1/g16/l302.exe)
 NPDir=0 NMtPBC=     1 NCelOv=     1 NCel=       1 NClECP=     1 NCelD=      1
         NCelK=      1 NCelE2=     1 NClLst=     1 CellRange=     0.0.
 One-electron integrals computed using PRISM.
 One-electron integral symmetry used in STVInt
 NBasis=  1428 RedAO= T EigKep=  1.11D-06  NBF=  1428
 NBsUse=  1419 1.00D-06 EigRej=  9.72D-07 NBFU=  1419
 Precomputing XC quadrature grid using
 IXCGrd= 4 IRadAn=           5 IRanWt=          -1 IRanGd=           0 AccXCQ= 0.00D+00.
 Generated NRdTot=       0 NPtTot=           0 NUsed=           0 NTot=          32
 NSgBfM=  1469  1469  1469  1469  1469 MxSgAt=    80 MxSgA2=    80.
 Leave Link  302 at Tue Aug 10 18:37:30 2021, MaxMem=  6442450944 cpu:              41.6 elap:               4.3
 (Enter /software/sse/easybuild/prefix/software/Gaussian/16.C.01-avx2-nsc1/g16/l303.exe)
 DipDrv:  MaxL=1.
 Leave Link  303 at Tue Aug 10 18:37:31 2021, MaxMem=  6442450944 cpu:               2.9 elap:               0.4
 (Enter /software/sse/easybuild/prefix/software/Gaussian/16.C.01-avx2-nsc1/g16/l308.exe)
 Leave Link  308 at Tue Aug 10 18:37:32 2021, MaxMem=  6442450944 cpu:               4.3 elap:               0.7
 (Enter /software/sse/easybuild/prefix/software/Gaussian/16.C.01-avx2-nsc1/g16/l401.exe)
 ExpMin= 3.60D-02 ExpMax= 9.34D+04 ExpMxC= 3.17D+03 IAcc=3 IRadAn=         5 AccDes= 0.00D+00
 Harris functional with IExCor=  402 and IRadAn=       5 diagonalized for initial guess.
 HarFok:  IExCor=  402 AccDes= 0.00D+00 IRadAn=         5 IDoV= 1 UseB2=F ITyADJ=14
 ICtDFT=  3500011 ScaDFX=  1.000000  1.000000  1.000000  1.000000
 FoFCou: FMM=F IPFlag=           0 FMFlag=      100000 FMFlg1=        2001
         NFxFlg=           0 DoJE=T BraDBF=F KetDBF=T FulRan=T
         wScrn=  0.000000 ICntrl=       500 IOpCl=  0 I1Cent=   200000004 NGrid=           0
         NMat0=    1 NMatS0=      1 NMatT0=    0 NMatD0=    1 NMtDS0=    0 NMtDT0=    0
 Petite list used in FoFCou.
 Harris En= -2331.30268026650    
 JPrj=0 DoOrth=F DoCkMO=F.
 Leave Link  401 at Tue Aug 10 18:37:49 2021, MaxMem=  6442450944 cpu:             165.5 elap:              16.7
 (Enter /software/sse/easybuild/prefix/software/Gaussian/16.C.01-avx2-nsc1/g16/l502.exe)
 Integral symmetry usage will be decided dynamically.
 Closed shell SCF:
 Using DIIS extrapolation, IDIIS=  1040.
 NGot=  6442450944 LenX=  6437835921 LenY=  6435542211
 Requested convergence on RMS density matrix=1.00D-08 within 128 cycles.
 Requested convergence on MAX density matrix=1.00D-06.
 Requested convergence on             energy=1.00D-06.
 No special actions if energy rises.
 Fock matrices will be formed incrementally for  20 cycles.

 Cycle   1  Pass 1  IDiag  1:
 FoFJK:  IHMeth= 1 ICntrl=       0 DoSepK=F KAlg= 0 I1Cent=           0 FoldK=F
 IRaf= 870000000 NMat=       1 IRICut=       1 DoRegI=T DoRafI=F ISym2E= 0 IDoP0=0 IntGTp=1.
 FoFCou: FMM=T IPFlag=           0 FMFlag=      100000 FMFlg1=        2001
         NFxFlg=           0 DoJE=F BraDBF=F KetDBF=F FulRan=T
         wScrn=  0.000000 ICntrl=         0 IOpCl=  0 I1Cent=           0 NGrid=           0
         NMat0=    1 NMatS0=      1 NMatT0=    0 NMatD0=    1 NMtDS0=    0 NMtDT0=    0
 Symmetry not used in FoFCou.
 FMM levels:  10  Number of levels for PrismC:   9
 Inv3:  Mode=1 IEnd=    71179923.
 Iteration    1 A*A^-1 deviation from unit magnitude is 3.44D-15 for   2625.
 Iteration    1 A*A^-1 deviation from orthogonality  is 2.55D-15 for   3961   3315.
 Iteration    1 A^-1*A deviation from unit magnitude is 3.33D-15 for    622.
 Iteration    1 A^-1*A deviation from orthogonality  is 3.57D-15 for   4219   4199.
 E= -2329.97757029183    
 DIIS: error= 1.76D-02 at cycle   1 NSaved=   1.
 NSaved= 1 IEnMin= 1 EnMin= -2329.97757029183     IErMin= 1 ErrMin= 1.76D-02
 ErrMax= 1.76D-02  0.00D+00 EMaxC= 1.00D-01 BMatC= 1.58D+00 BMatP= 1.58D+00
 IDIUse=3 WtCom= 8.24D-01 WtEn= 1.76D-01
 Coeff-Com:  0.100D+01
 Coeff-En:   0.100D+01
 Coeff:      0.100D+01
 Gap=     0.227 Goal=   None    Shift=    0.000
 GapD=    0.227 DampG=1.000 DampE=0.500 DampFc=0.5000 IDamp=-1.
 Damping current iteration by 5.00D-01
 RMSDP=9.45D-03 MaxDP=1.92D+00              OVMax= 2.44D-01

 Cycle   2  Pass 1  IDiag  1:
 RMSU=  4.17D-03    CP:  8.96D-01
 E= -2330.37527983176     Delta-E=       -0.397709539933 Rises=F Damp=T
 DIIS: error= 4.22D-03 at cycle   2 NSaved=   2.
 NSaved= 2 IEnMin= 2 EnMin= -2330.37527983176     IErMin= 2 ErrMin= 4.22D-03
 ErrMax= 4.22D-03  0.00D+00 EMaxC= 1.00D-01 BMatC= 1.92D-01 BMatP= 1.58D+00
 IDIUse=3 WtCom= 9.58D-01 WtEn= 4.22D-02
 Coeff-Com:  0.173D+00 0.827D+00
 Coeff-En:   0.301D+00 0.699D+00
 Coeff:      0.178D+00 0.822D+00
 Gap=     0.203 Goal=   None    Shift=    0.000
 RMSDP=3.16D-03 MaxDP=7.48D-01 DE=-3.98D-01 OVMax= 1.53D-01

 Cycle   3  Pass 1  IDiag  1:
 RMSU=  2.26D-03    CP:  8.23D-01  6.26D-01
 E= -2331.06072619368     Delta-E=       -0.685446361913 Rises=F Damp=F
 DIIS: error= 6.32D-03 at cycle   3 NSaved=   3.
 NSaved= 3 IEnMin= 3 EnMin= -2331.06072619368     IErMin= 2 ErrMin= 4.22D-03
 ErrMax= 6.32D-03  0.00D+00 EMaxC= 1.00D-01 BMatC= 2.16D-01 BMatP= 1.92D-01
 IDIUse=3 WtCom= 1.12D-01 WtEn= 8.88D-01
 Coeff-Com:  0.276D-01 0.515D+00 0.457D+00
 Coeff-En:   0.000D+00 0.000D+00 0.100D+01
 Coeff:      0.308D-02 0.575D-01 0.939D+00
 Gap=     0.180 Goal=   None    Shift=    0.000
 RMSDP=3.57D-03 MaxDP=8.82D-01 DE=-6.85D-01 OVMax= 2.01D-01

 Cycle   4  Pass 1  IDiag  1:
 RMSU=  3.04D-03    CP:  7.82D-01  7.99D-01  3.39D-01
 E= -2330.50190590905     Delta-E=        0.558820284630 Rises=F Damp=F
 DIIS: error= 1.21D-02 at cycle   4 NSaved=   4.
 NSaved= 4 IEnMin= 3 EnMin= -2331.06072619368     IErMin= 2 ErrMin= 4.22D-03
 ErrMax= 1.21D-02  0.00D+00 EMaxC= 1.00D-01 BMatC= 9.52D-01 BMatP= 1.92D-01
 IDIUse=2 WtCom= 0.00D+00 WtEn= 1.00D+00
 Coeff-En:   0.000D+00 0.000D+00 0.756D+00 0.244D+00
 Coeff:      0.000D+00 0.000D+00 0.756D+00 0.244D+00
 Gap=     0.170 Goal=   None    Shift=    0.000
 RMSDP=1.77D-03 MaxDP=3.38D-01 DE= 5.59D-01 OVMax= 9.84D-02

 Cycle   5  Pass 1  IDiag  1:
 RMSU=  4.30D-04    CP:  7.92D-01  6.72D-01  6.27D-01  5.12D-01
 E= -2331.18586090375     Delta-E=       -0.683954994700 Rises=F Damp=F
 DIIS: error= 3.18D-03 at cycle   5 NSaved=   5.
 NSaved= 5 IEnMin= 5 EnMin= -2331.18586090375     IErMin= 5 ErrMin= 3.18D-03
 ErrMax= 3.18D-03  0.00D+00 EMaxC= 1.00D-01 BMatC= 5.59D-02 BMatP= 1.92D-01
 IDIUse=3 WtCom= 9.68D-01 WtEn= 3.18D-02
 Coeff-Com:  0.691D-03 0.139D-01 0.312D+00-0.250D-01 0.698D+00
 Coeff-En:   0.000D+00 0.000D+00 0.252D+00 0.000D+00 0.748D+00
 Coeff:      0.669D-03 0.134D-01 0.310D+00-0.242D-01 0.700D+00
 Gap=     0.171 Goal=   None    Shift=    0.000
 RMSDP=6.29D-04 MaxDP=1.75D-01 DE=-6.84D-01 OVMax= 2.96D-02

 Cycle   6  Pass 1  IDiag  1:
 RMSU=  1.88D-04    CP:  7.98D-01  6.68D-01  7.54D-01  3.50D-01  7.25D-01
 E= -2331.22754430998     Delta-E=       -0.041683406230 Rises=F Damp=F
 DIIS: error= 3.95D-04 at cycle   6 NSaved=   6.
 NSaved= 6 IEnMin= 6 EnMin= -2331.22754430998     IErMin= 6 ErrMin= 3.95D-04
 ErrMax= 3.95D-04  0.00D+00 EMaxC= 1.00D-01 BMatC= 1.08D-03 BMatP= 5.59D-02
 IDIUse=3 WtCom= 9.96D-01 WtEn= 3.95D-03
 Coeff-Com: -0.287D-02 0.770D-02 0.146D+00-0.522D-01 0.488D+00 0.413D+00
 Coeff-En:   0.000D+00 0.000D+00 0.000D+00 0.000D+00 0.000D+00 0.100D+01
 Coeff:     -0.285D-02 0.767D-02 0.146D+00-0.520D-01 0.487D+00 0.415D+00
 Gap=     0.165 Goal=   None    Shift=    0.000
 RMSDP=1.16D-04 MaxDP=3.27D-02 DE=-4.17D-02 OVMax= 4.72D-03

 Cycle   7  Pass 1  IDiag  1:
 RMSU=  5.96D-05    CP:  7.96D-01  6.68D-01  7.48D-01  3.52D-01  8.19D-01
                    CP:  5.93D-01
 E= -2331.22840605041     Delta-E=       -0.000861740433 Rises=F Damp=F
 DIIS: error= 7.41D-05 at cycle   7 NSaved=   7.
 NSaved= 7 IEnMin= 7 EnMin= -2331.22840605041     IErMin= 7 ErrMin= 7.41D-05
 ErrMax= 7.41D-05  0.00D+00 EMaxC= 1.00D-01 BMatC= 3.50D-05 BMatP= 1.08D-03
 IDIUse=1 WtCom= 1.00D+00 WtEn= 0.00D+00
 Coeff-Com: -0.134D-02 0.344D-02 0.563D-01-0.269D-01 0.209D+00 0.211D+00
 Coeff-Com:  0.549D+00
 Coeff:     -0.134D-02 0.344D-02 0.563D-01-0.269D-01 0.209D+00 0.211D+00
 Coeff:      0.549D+00
 Gap=     0.165 Goal=   None    Shift=    0.000
 RMSDP=2.19D-05 MaxDP=3.43D-03 DE=-8.62D-04 OVMax= 1.08D-03

 Cycle   8  Pass 1  IDiag  1:
 RMSU=  1.53D-05    CP:  7.96D-01  6.66D-01  7.50D-01  3.52D-01  8.25D-01
                    CP:  6.10D-01  8.01D-01
 E= -2331.22843039473     Delta-E=       -0.000024344322 Rises=F Damp=F
 DIIS: error= 2.98D-05 at cycle   8 NSaved=   8.
 NSaved= 8 IEnMin= 8 EnMin= -2331.22843039473     IErMin= 8 ErrMin= 2.98D-05
 ErrMax= 2.98D-05  0.00D+00 EMaxC= 1.00D-01 BMatC= 5.00D-06 BMatP= 3.50D-05
 IDIUse=1 WtCom= 1.00D+00 WtEn= 0.00D+00
 Coeff-Com: -0.139D-03 0.352D-03 0.117D-01-0.698D-02 0.448D-01 0.515D-01
 Coeff-Com:  0.296D+00 0.603D+00
 Coeff:     -0.139D-03 0.352D-03 0.117D-01-0.698D-02 0.448D-01 0.515D-01
 Coeff:      0.296D+00 0.603D+00
 Gap=     0.165 Goal=   None    Shift=    0.000
 RMSDP=7.25D-06 MaxDP=1.46D-03 DE=-2.43D-05 OVMax= 3.22D-04

 Cycle   9  Pass 1  IDiag  1:
 RMSU=  5.58D-06    CP:  7.96D-01  6.66D-01  7.50D-01  3.51D-01  8.26D-01
                    CP:  6.11D-01  8.29D-01  7.72D-01
 E= -2331.22843380744     Delta-E=       -0.000003412710 Rises=F Damp=F
 DIIS: error= 1.13D-05 at cycle   9 NSaved=   9.
 NSaved= 9 IEnMin= 9 EnMin= -2331.22843380744     IErMin= 9 ErrMin= 1.13D-05
 ErrMax= 1.13D-05  0.00D+00 EMaxC= 1.00D-01 BMatC= 7.87D-07 BMatP= 5.00D-06
 IDIUse=1 WtCom= 1.00D+00 WtEn= 0.00D+00
 Coeff-Com:  0.812D-04-0.239D-03 0.214D-02-0.160D-02 0.763D-02 0.111D-01
 Coeff-Com:  0.131D+00 0.379D+00 0.471D+00
 Coeff:      0.812D-04-0.239D-03 0.214D-02-0.160D-02 0.763D-02 0.111D-01
 Coeff:      0.131D+00 0.379D+00 0.471D+00
 Gap=     0.165 Goal=   None    Shift=    0.000
 RMSDP=2.71D-06 MaxDP=3.79D-04 DE=-3.41D-06 OVMax= 1.37D-04

 Cycle  10  Pass 1  IDiag  1:
 RMSU=  1.92D-06    CP:  7.96D-01  6.66D-01  7.50D-01  3.51D-01  8.26D-01
                    CP:  6.11D-01  8.36D-01  7.98D-01  7.02D-01
 E= -2331.22843441631     Delta-E=       -0.000000608869 Rises=F Damp=F
 DIIS: error= 2.39D-06 at cycle  10 NSaved=  10.
 NSaved=10 IEnMin=10 EnMin= -2331.22843441631     IErMin=10 ErrMin= 2.39D-06
 ErrMax= 2.39D-06  0.00D+00 EMaxC= 1.00D-01 BMatC= 4.86D-08 BMatP= 7.87D-07
 IDIUse=1 WtCom= 1.00D+00 WtEn= 0.00D+00
 Coeff-Com:  0.534D-04-0.179D-03 0.248D-03-0.276D-03 0.618D-03 0.193D-02
 Coeff-Com:  0.422D-01 0.143D+00 0.258D+00 0.554D+00
 Coeff:      0.534D-04-0.179D-03 0.248D-03-0.276D-03 0.618D-03 0.193D-02
 Coeff:      0.422D-01 0.143D+00 0.258D+00 0.554D+00
 Gap=     0.165 Goal=   None    Shift=    0.000
 RMSDP=9.39D-07 MaxDP=2.35D-04 DE=-6.09D-07 OVMax= 3.10D-05

 Cycle  11  Pass 1  IDiag  1:
 RMSU=  6.52D-07    CP:  7.96D-01  6.66D-01  7.50D-01  3.51D-01  8.25D-01
                    CP:  6.12D-01  8.39D-01  7.97D-01  7.07D-01  8.54D-01
 E= -2331.22843445111     Delta-E=       -0.000000034802 Rises=F Damp=F
 DIIS: error= 8.39D-07 at cycle  11 NSaved=  11.
 NSaved=11 IEnMin=11 EnMin= -2331.22843445111     IErMin=11 ErrMin= 8.39D-07
 ErrMax= 8.39D-07  0.00D+00 EMaxC= 1.00D-01 BMatC= 6.57D-09 BMatP= 4.86D-08
 IDIUse=1 WtCom= 1.00D+00 WtEn= 0.00D+00
 Coeff-Com:  0.230D-04-0.778D-04-0.151D-03 0.310D-04-0.643D-03-0.146D-03
 Coeff-Com:  0.105D-01 0.433D-01 0.102D+00 0.325D+00 0.520D+00
 Coeff:      0.230D-04-0.778D-04-0.151D-03 0.310D-04-0.643D-03-0.146D-03
 Coeff:      0.105D-01 0.433D-01 0.102D+00 0.325D+00 0.520D+00
 Gap=     0.165 Goal=   None    Shift=    0.000
 RMSDP=2.80D-07 MaxDP=5.66D-05 DE=-3.48D-08 OVMax= 1.07D-05

 Cycle  12  Pass 1  IDiag  1:
 RMSU=  2.18D-07    CP:  7.96D-01  6.66D-01  7.50D-01  3.51D-01  8.25D-01
                    CP:  6.13D-01  8.39D-01  8.00D-01  7.18D-01  8.58D-01
                    CP:  8.34D-01
 E= -2331.22843445570     Delta-E=       -0.000000004592 Rises=F Damp=F
 DIIS: error= 4.22D-07 at cycle  12 NSaved=  12.
 NSaved=12 IEnMin=12 EnMin= -2331.22843445570     IErMin=12 ErrMin= 4.22D-07
 ErrMax= 4.22D-07  0.00D+00 EMaxC= 1.00D-01 BMatC= 7.72D-10 BMatP= 6.57D-09
 IDIUse=1 WtCom= 1.00D+00 WtEn= 0.00D+00
 Coeff-Com:  0.532D-05-0.165D-04-0.143D-03 0.569D-04-0.489D-03-0.359D-03
 Coeff-Com:  0.350D-03 0.571D-02 0.244D-01 0.111D+00 0.293D+00 0.567D+00
 Coeff:      0.532D-05-0.165D-04-0.143D-03 0.569D-04-0.489D-03-0.359D-03
 Coeff:      0.350D-03 0.571D-02 0.244D-01 0.111D+00 0.293D+00 0.567D+00
 Gap=     0.165 Goal=   None    Shift=    0.000
 RMSDP=1.01D-07 MaxDP=1.83D-05 DE=-4.59D-09 OVMax= 4.33D-06

 Cycle  13  Pass 1  IDiag  1:
 RMSU=  7.66D-08    CP:  7.96D-01  6.66D-01  7.50D-01  3.51D-01  8.25D-01
                    CP:  6.13D-01  8.39D-01  8.03D-01  7.19D-01  8.71D-01
                    CP:  8.38D-01  8.56D-01
 E= -2331.22843445628     Delta-E=       -0.000000000577 Rises=F Damp=F
 DIIS: error= 1.33D-07 at cycle  13 NSaved=  13.
 NSaved=13 IEnMin=13 EnMin= -2331.22843445628     IErMin=13 ErrMin= 1.33D-07
 ErrMax= 1.33D-07  0.00D+00 EMaxC= 1.00D-01 BMatC= 1.01D-10 BMatP= 7.72D-10
 IDIUse=1 WtCom= 1.00D+00 WtEn= 0.00D+00
 Coeff-Com: -0.248D-07-0.482D-06-0.709D-04 0.281D-04-0.211D-03-0.181D-03
 Coeff-Com: -0.831D-03-0.125D-02 0.323D-02 0.290D-01 0.113D+00 0.331D+00
 Coeff-Com:  0.526D+00
 Coeff:     -0.248D-07-0.482D-06-0.709D-04 0.281D-04-0.211D-03-0.181D-03
 Coeff:     -0.831D-03-0.125D-02 0.323D-02 0.290D-01 0.113D+00 0.331D+00
 Coeff:      0.526D+00
 Gap=     0.165 Goal=   None    Shift=    0.000
 RMSDP=4.18D-08 MaxDP=1.16D-05 DE=-5.77D-10 OVMax= 1.83D-06

 Cycle  14  Pass 1  IDiag  1:
 RMSU=  2.84D-08    CP:  7.96D-01  6.66D-01  7.50D-01  3.51D-01  8.25D-01
                    CP:  6.13D-01  8.39D-01  8.02D-01  7.22D-01  8.72D-01
                    CP:  8.47D-01  8.65D-01  7.38D-01
 E= -2331.22843445640     Delta-E=       -0.000000000121 Rises=F Damp=F
 DIIS: error= 3.95D-08 at cycle  14 NSaved=  14.
 NSaved=14 IEnMin=14 EnMin= -2331.22843445640     IErMin=14 ErrMin= 3.95D-08
 ErrMax= 3.95D-08  0.00D+00 EMaxC= 1.00D-01 BMatC= 1.21D-11 BMatP= 1.01D-10
 IDIUse=1 WtCom= 1.00D+00 WtEn= 0.00D+00
 Coeff-Com: -0.875D-06 0.208D-05-0.208D-04 0.788D-05-0.503D-04-0.470D-04
 Coeff-Com: -0.453D-03-0.137D-02-0.141D-02 0.106D-02 0.237D-01 0.110D+00
 Coeff-Com:  0.304D+00 0.565D+00
 Coeff:     -0.875D-06 0.208D-05-0.208D-04 0.788D-05-0.503D-04-0.470D-04
 Coeff:     -0.453D-03-0.137D-02-0.141D-02 0.106D-02 0.237D-01 0.110D+00
 Coeff:      0.304D+00 0.565D+00
 Gap=     0.165 Goal=   None    Shift=    0.000
 RMSDP=1.45D-08 MaxDP=2.53D-06 DE=-1.21D-10 OVMax= 6.34D-07

 Cycle  15  Pass 1  IDiag  1:
 RMSU=  1.01D-08    CP:  7.96D-01  6.66D-01  7.50D-01  3.51D-01  8.25D-01
                    CP:  6.13D-01  8.39D-01  8.02D-01  7.21D-01  8.73D-01
                    CP:  8.50D-01  8.79D-01  8.18D-01  8.52D-01
 E= -2331.22843445648     Delta-E=       -0.000000000074 Rises=F Damp=F
 DIIS: error= 1.30D-08 at cycle  15 NSaved=  15.
 NSaved=15 IEnMin=15 EnMin= -2331.22843445648     IErMin=15 ErrMin= 1.30D-08
 ErrMax= 1.30D-08  0.00D+00 EMaxC= 1.00D-01 BMatC= 1.29D-12 BMatP= 1.21D-11
 IDIUse=1 WtCom= 1.00D+00 WtEn= 0.00D+00
 Coeff-Com: -0.472D-06 0.118D-05-0.411D-05 0.163D-05-0.689D-05-0.747D-05
 Coeff-Com: -0.148D-03-0.597D-03-0.112D-02-0.281D-02-0.716D-03 0.204D-01
 Coeff-Com:  0.103D+00 0.314D+00 0.568D+00
 Coeff:     -0.472D-06 0.118D-05-0.411D-05 0.163D-05-0.689D-05-0.747D-05
 Coeff:     -0.148D-03-0.597D-03-0.112D-02-0.281D-02-0.716D-03 0.204D-01
 Coeff:      0.103D+00 0.314D+00 0.568D+00
 Gap=     0.165 Goal=   None    Shift=    0.000
 RMSDP=5.58D-09 MaxDP=9.39D-07 DE=-7.37D-11 OVMax= 2.67D-07

 Error on total polarization charges =  0.02553
 SCF Done:  E(RB3LYP) =  -2331.22843446     A.U. after   15 cycles
            NFock= 15  Conv=0.56D-08     -V/T= 2.0036
 KE= 2.322859633146D+03 PE=-1.748081094127D+04 EE= 6.812797356697D+03
 Leave Link  502 at Tue Aug 10 19:45:41 2021, MaxMem=  6442450944 cpu:           40155.2 elap:            4071.7
 (Enter /software/sse/easybuild/prefix/software/Gaussian/16.C.01-avx2-nsc1/g16/l801.exe)
 DoSCS=F DFT=T ScalE2(SS,OS)=  1.000000  1.000000
 Range of M.O.s used for correlation:     1  1419
 NBasis=  1428 NAE=   161 NBE=   161 NFC=     0 NFV=     0
 NROrb=   1419 NOA=   161 NOB=   161 NVA=  1258 NVB=  1258

 **** Warning!!: The largest alpha MO coefficient is  0.98923794D+02

 Leave Link  801 at Tue Aug 10 19:45:41 2021, MaxMem=  6442450944 cpu:               0.8 elap:               0.1
 (Enter /software/sse/easybuild/prefix/software/Gaussian/16.C.01-avx2-nsc1/g16/l1002.exe)
 Minotr:  Closed shell wavefunction.
 NEqPCM:  Using equilibrium solvation (IEInf=0, Eps=  46.8260, EpsInf=   2.0079)
          Direct CPHF calculation.
          Differentiating once with respect to magnetic field using GIAOs.
          Electric field/nuclear overlap derivatives assumed to be zero.
          Requested convergence is 1.0D-08 RMS, and 1.0D-07 maximum.
          Secondary convergence is 1.0D-12 RMS, and 1.0D-12 maximum.
          NewPWx=T KeepS1=F KeepF1=F KeepIn=T MapXYZ=F SortEE=F KeepMc=T.
        25003 words used for storage of precomputed grid.
 Two-electron integral symmetry used by symmetrizing perturbed Fock matrices.
          MDV=    6442450944 using IRadAn=       1.
          Solving linear equations simultaneously, MaxMat=      72.
 FoFJK:  IHMeth= 1 ICntrl=    6127 DoSepK=F KAlg= 0 I1Cent=           0 FoldK=F
 IRaf=         1 NMat=       1 IRICut=       1 DoRegI=T DoRafI=F ISym2E= 0 IDoP0=0 IntGTp=1.
          There are     3 degrees of freedom in the 1st order CPHF.  IDoFFX=0 NUNeed=     3.
      3 vectors produced by pass  0 Test12= 6.75D-12 3.33D-08 XBig12= 1.12D+03 3.19D+00.
 AX will form     3 AO Fock derivatives at one time.
      3 vectors produced by pass  1 Test12= 6.75D-12 3.33D-08 XBig12= 2.82D+00 3.24D-01.
      3 vectors produced by pass  2 Test12= 6.75D-12 3.33D-08 XBig12= 1.79D-02 4.22D-02.
      3 vectors produced by pass  3 Test12= 6.75D-12 3.33D-08 XBig12= 1.23D-04 2.93D-03.
      3 vectors produced by pass  4 Test12= 6.75D-12 3.33D-08 XBig12= 6.28D-07 1.41D-04.
      3 vectors produced by pass  5 Test12= 6.75D-12 3.33D-08 XBig12= 3.53D-09 1.55D-05.
      3 vectors produced by pass  6 Test12= 6.75D-12 3.33D-08 XBig12= 2.25D-11 1.26D-06.
      1 vectors produced by pass  7 Test12= 6.75D-12 3.33D-08 XBig12= 1.04D-13 6.09D-08.
 InvSVY:  IOpt=1 It=  1 EMax= 2.84D-14
 Solved reduced A of dimension    22 with     3 vectors.
 Calculating GIAO nuclear magnetic shielding tensors.
 SCF GIAO Magnetic shielding tensor (ppm):
      1  C    Isotropic =   150.5965   Anisotropy =    41.5178
   XX=   140.4385   YX=     0.8126   ZX=     2.0386
   XY=    -2.8291   YY=   138.2942   ZY=    16.2439
   XZ=     2.3243   YZ=    12.4006   ZZ=   173.0568
   Eigenvalues:   132.7794   140.7351   178.2750
      2  H    Isotropic =    30.1497   Anisotropy =     8.4280
   XX=    32.0601   YX=     3.7883   ZX=     2.6373
   XY=     3.3700   YY=    29.0016   ZY=     0.7136
   XZ=     2.7458   YZ=     1.7494   ZZ=    29.3875
   Eigenvalues:    26.5224    28.1583    35.7684
      3  H    Isotropic =    30.2074   Anisotropy =     6.4701
   XX=    32.1399   YX=    -1.8806   ZX=    -0.1740
   XY=    -2.6099   YY=    29.2241   ZY=     2.2046
   XZ=    -2.5385   YZ=     2.7940   ZZ=    29.2583
   Eigenvalues:    26.6457    29.4558    34.5208
      4  H    Isotropic =    29.3309   Anisotropy =     5.6589
   XX=    28.0495   YX=     0.4590   ZX=     2.3124
   XY=     0.7225   YY=    29.0337   ZY=    -1.0591
   XZ=     2.9928   YZ=    -3.1430   ZZ=    30.9095
   Eigenvalues:    25.6456    29.2436    33.1035
      5  C    Isotropic =   115.7281   Anisotropy =    63.1462
   XX=   155.4964   YX=    14.0295   ZX=     1.8250
   XY=     9.2817   YY=    96.7314   ZY=     1.5158
   XZ=     2.2690   YZ=     3.9905   ZZ=    94.9563
   Eigenvalues:    92.3546    97.0040   157.8255
      6  C    Isotropic =   151.1454   Anisotropy =    47.0917
   XX=   141.4527   YX=    -4.4875   ZX=     0.8272
   XY=    -0.8934   YY=   164.4818   ZY=   -24.1656
   XZ=     3.0369   YZ=   -25.5783   ZZ=   147.5017
   Eigenvalues:   129.7107   141.1857   182.5399
      7  H    Isotropic =    31.1004   Anisotropy =     7.9156
   XX=    33.1873   YX=    -3.1981   ZX=    -1.9629
   XY=    -3.3486   YY=    33.0119   ZY=    -0.1733
   XZ=    -1.2110   YZ=    -2.6012   ZZ=    27.1020
   Eigenvalues:    25.9578    30.9659    36.3775
      8  H    Isotropic =    30.6761   Anisotropy =     9.1959
   XX=    33.1073   YX=     3.1517   ZX=    -2.0545
   XY=     3.9974   YY=    30.8568   ZY=    -1.8110
   XZ=    -2.8485   YZ=    -1.8812   ZZ=    28.0641
   Eigenvalues:    26.9860    28.2356    36.8067
      9  H    Isotropic =    30.9707   Anisotropy =     6.6683
   XX=    29.5837   YX=    -0.4087   ZX=     0.2259
   XY=    -0.9403   YY=    28.6498   ZY=    -3.3525
   XZ=    -0.1340   YZ=    -1.0781   ZZ=    34.6786
   Eigenvalues:    27.7126    29.7833    35.4162
     10  C    Isotropic =   153.6255   Anisotropy =    45.3638
   XX=   160.2158   YX=   -20.0969   ZX=   -10.5525
   XY=   -16.5516   YY=   155.8290   ZY=    11.9130
   XZ=    -9.3324   YZ=    16.6136   ZZ=   144.8316
   Eigenvalues:   134.6411   142.3673   183.8680
     11  H    Isotropic =    29.5721   Anisotropy =     7.3016
   XX=    30.3637   YX=    -3.8257   ZX=     0.0010
   XY=    -3.4086   YY=    30.9919   ZY=    -2.9112
   XZ=    -1.9485   YZ=    -1.3708   ZZ=    27.3608
   Eigenvalues:    24.9910    29.2855    34.4399
     12  H    Isotropic =    30.4752   Anisotropy =     6.6003
   XX=    29.6253   YX=    -0.7055   ZX=    -1.4500
   XY=    -0.1338   YY=    30.1580   ZY=     3.8840
   XZ=    -0.6511   YZ=     3.4736   ZZ=    31.6422
   Eigenvalues:    27.0983    29.4519    34.8754
     13  H    Isotropic =    30.4723   Anisotropy =     9.5999
   XX=    35.3610   YX=    -0.0043   ZX=    -4.0642
   XY=    -1.3858   YY=    29.0930   ZY=     0.0944
   XZ=    -3.5555   YZ=    -0.5831   ZZ=    26.9629
   Eigenvalues:    25.4292    29.1154    36.8722
     14  O    Isotropic =   118.5924   Anisotropy =    85.5678
   XX=    69.4882   YX=   -24.7976   ZX=   -20.1636
   XY=    58.5736   YY=   149.7851   ZY=    40.4429
   XZ=   -75.3691   YZ=    15.1849   ZZ=   136.5039
   Eigenvalues:    37.6070   142.5326   175.6376
     15  C    Isotropic =    26.5996   Anisotropy =    63.9772
   XX=     0.4804   YX=   -52.2722   ZX=    21.1763
   XY=   -63.3792   YY=    20.2400   ZY=    17.7623
   XZ=    26.4718   YZ=    20.5755   ZZ=    59.0785
   Eigenvalues:   -56.3966    66.9444    69.2511
     16  O    Isotropic =    41.7441   Anisotropy =   393.6432
   XX=   -44.3856   YX=   -34.1991   ZX=   -58.9430
   XY=   -32.1090   YY=    45.3534   ZY=   192.6711
   XZ=   -92.1515   YZ=   201.9076   ZZ=   124.2646
   Eigenvalues:  -124.0895   -54.8510   304.1729
     17  N    Isotropic =   149.7733   Anisotropy =    95.5103
   XX=   211.8916   YX=    27.6944   ZX=    -5.4832
   XY=   -14.5036   YY=   108.2304   ZY=    15.8552
   XZ=    20.6638   YZ=    40.5442   ZZ=   129.1980
   Eigenvalues:    88.6192   147.2540   213.4469
     18  H    Isotropic =    26.7023   Anisotropy =     9.3498
   XX=    30.5857   YX=    -1.2025   ZX=     3.1595
   XY=    -2.6746   YY=    29.3311   ZY=    -3.6433
   XZ=     0.9274   YZ=    -2.3645   ZZ=    20.1902
   Eigenvalues:    19.1117    28.0598    32.9355
     19  C    Isotropic =   120.2103   Anisotropy =    31.4051
   XX=   126.1410   YX=    17.6211   ZX=     6.4147
   XY=    12.9296   YY=   113.2175   ZY=     1.5116
   XZ=     8.9343   YZ=    10.9681   ZZ=   121.2724
   Eigenvalues:   103.0331   116.4507   141.1470
     20  C    Isotropic =     5.3672   Anisotropy =   116.9371
   XX=   -21.5230   YX=    15.2499   ZX=   -64.5745
   XY=    28.5635   YY=     1.3756   ZY=    40.6244
   XZ=   -67.9711   YZ=    27.1334   ZZ=    36.2489
   Eigenvalues:   -81.6538    14.4300    83.3252
     21  N    Isotropic =   115.6928   Anisotropy =    87.9438
   XX=    82.7727   YX=   -47.1877   ZX=   -46.5652
   XY=  -109.5633   YY=   107.1376   ZY=   -59.0300
   XZ=   -21.6397   YZ=    -0.6045   ZZ=   157.1680
   Eigenvalues:     2.3824   170.3739   174.3220
     22  H    Isotropic =    24.4540   Anisotropy =    11.0963
   XX=    25.5674   YX=     2.8850   ZX=     5.8429
   XY=     2.6120   YY=    29.1809   ZY=     0.6954
   XZ=     4.3013   YZ=     2.1970   ZZ=    18.6138
   Eigenvalues:    15.9413    25.5693    31.8516
     23  O    Isotropic =   -63.3902   Anisotropy =   601.5700
   XX=   -94.3365   YX=  -160.4070   ZX=  -195.8858
   XY=  -105.6956   YY=  -274.6882   ZY=   133.1442
   XZ=  -222.9573   YZ=    99.6682   ZZ=   178.8541
   Eigenvalues:  -345.3077  -182.5194   337.6565
     24  H    Isotropic =    27.5421   Anisotropy =     5.9662
   XX=    27.0462   YX=     1.4482   ZX=    -1.9794
   XY=     0.8484   YY=    29.7556   ZY=     2.5136
   XZ=    -3.0395   YZ=     3.7943   ZZ=    25.8247
   Eigenvalues:    22.4316    28.6752    31.5196
     25  C    Isotropic =   141.9021   Anisotropy =    30.3380
   XX=   132.5057   YX=     4.6540   ZX=    -7.9478
   XY=    -1.8002   YY=   147.0330   ZY=    11.2586
   XZ=   -12.1371   YZ=    17.1789   ZZ=   146.1676
   Eigenvalues:   123.7477   139.8311   162.1274
     26  H    Isotropic =    27.6388   Anisotropy =     6.8182
   XX=    31.4999   YX=    -1.0413   ZX=    -0.5493
   XY=    -2.6276   YY=    26.7806   ZY=    -2.0853
   XZ=     0.1210   YZ=    -2.8777   ZZ=    24.6357
   Eigenvalues:    22.8354    27.8967    32.1843
     27  H    Isotropic =    29.0914   Anisotropy =     5.8491
   XX=    28.3658   YX=     0.9128   ZX=    -1.9958
   XY=     1.6292   YY=    32.2971   ZY=    -1.7991
   XZ=    -0.8875   YZ=    -0.2667   ZZ=    26.6111
   Eigenvalues:    25.7874    28.4959    32.9908
     28  C    Isotropic =    41.0921   Anisotropy =   202.8943
   XX=    13.8918   YX=    -2.9795   ZX=    76.2339
   XY=   -12.8271   YY=    -0.9886   ZY=   -65.0213
   XZ=    78.3862   YZ=   -71.2062   ZZ=   110.3730
   Eigenvalues:   -51.2780    -1.8006   176.3549
     29  C    Isotropic =    42.8791   Anisotropy =   178.1718
   XX=   -33.9810   YX=   -46.6908   ZX=    70.8197
   XY=   -44.9880   YY=    43.1063   ZY=   -19.4320
   XZ=    78.0389   YZ=   -22.9257   ZZ=   119.5120
   Eigenvalues:   -74.8026    41.7796   161.6603
     30  C    Isotropic =    41.1175   Anisotropy =   186.1631
   XX=    19.2910   YX=   -25.3779   ZX=    40.5738
   XY=   -52.8644   YY=   -42.8292   ZY=   -32.0051
   XZ=    47.5398   YZ=    -7.4548   ZZ=   146.8906
   Eigenvalues:   -61.7315    19.8577   165.2262
     31  H    Isotropic =    24.1832   Anisotropy =     8.3958
   XX=    27.2141   YX=    -2.6817   ZX=    -1.2305
   XY=    -4.6558   YY=    22.4294   ZY=    -0.1308
   XZ=    -1.8824   YZ=     2.7491   ZZ=    22.9061
   Eigenvalues:    20.3618    22.4074    29.7804
     32  H    Isotropic =    23.7559   Anisotropy =     7.2103
   XX=    22.0245   YX=    -1.7216   ZX=    -0.1369
   XY=    -2.4013   YY=    25.5936   ZY=     2.2412
   XZ=    -2.5924   YZ=     3.4509   ZZ=    23.6497
   Eigenvalues:    21.0779    21.6271    28.5628
     33  C    Isotropic =    44.3841   Anisotropy =   154.2568
   XX=    38.2822   YX=   -63.6610   ZX=    30.2065
   XY=   -45.1341   YY=   -32.8194   ZY=   -19.3150
   XZ=    27.6532   YZ=   -36.9195   ZZ=   127.6894
   Eigenvalues:   -62.9239    48.8541   147.2219
     34  H    Isotropic =    24.4444   Anisotropy =     5.9443
   XX=    25.6255   YX=    -2.5763   ZX=    -2.3851
   XY=    -2.1854   YY=    23.3060   ZY=    -0.8214
   XZ=    -3.3107   YZ=    -0.3990   ZZ=    24.4015
   Eigenvalues:    20.5343    24.3915    28.4072
     35  C    Isotropic =    48.7918   Anisotropy =   168.9177
   XX=   -25.3433   YX=   -35.3456   ZX=    57.8233
   XY=   -11.3392   YY=    28.3487   ZY=   -25.3940
   XZ=    36.7412   YZ=   -18.9615   ZZ=   143.3700
   Eigenvalues:   -42.0214    26.9932   161.4036
     36  H    Isotropic =    24.2071   Anisotropy =     3.1677
   XX=    22.2395   YX=    -0.7862   ZX=     0.1305
   XY=     0.3332   YY=    26.2608   ZY=    -0.7580
   XZ=    -2.0255   YZ=     1.2531   ZZ=    24.1211
   Eigenvalues:    21.8421    24.4603    26.3190
     37  C    Isotropic =    19.3880   Anisotropy =   120.3243
   XX=     5.1456   YX=    39.0161   ZX=    29.5037
   XY=    32.6880   YY=   -32.5530   ZY=   -26.8398
   XZ=    36.9277   YZ=   -31.7764   ZZ=    85.5713
   Eigenvalues:   -66.1306    24.6903    99.6041
     38  O    Isotropic =   172.6053   Anisotropy =   149.2236
   XX=   152.3945   YX=   -20.3817   ZX=   -48.7141
   XY=   -16.1836   YY=   109.9086   ZY=    52.4069
   XZ=   -11.9638   YZ=    13.5872   ZZ=   255.5129
   Eigenvalues:    99.8976   145.8307   272.0877
     39  C    Isotropic =     8.7007   Anisotropy =   155.8063
   XX=    45.2101   YX=   -23.1463   ZX=   -47.3140
   XY=   -11.8000   YY=    -4.7896   ZY=    73.0863
   XZ=   -66.8082   YZ=    85.5999   ZZ=   -14.3183
   Eigenvalues:   -96.0280     9.5587   112.5716
     40  C    Isotropic =    47.0839   Anisotropy =   170.1862
   XX=    69.5132   YX=   -68.7988   ZX=   -36.5169
   XY=  -103.9931   YY=    10.7495   ZY=    65.2592
   XZ=   -14.5914   YZ=    44.5060   ZZ=    60.9889
   Eigenvalues:   -59.4769    40.1872   160.5413
     41  C    Isotropic =    37.0363   Anisotropy =   199.2273
   XX=    40.3708   YX=   -89.4004   ZX=   -50.7549
   XY=  -106.0544   YY=    67.9096   ZY=    21.6489
   XZ=   -68.4527   YZ=    13.8289   ZZ=     2.8284
   Eigenvalues:   -64.7938     6.0482   169.8545
     42  H    Isotropic =    23.8991   Anisotropy =     5.4649
   XX=    21.7754   YX=    -0.3417   ZX=    -2.1562
   XY=    -0.0918   YY=    24.9086   ZY=    -0.9678
   XZ=    -1.1570   YZ=    -3.8003   ZZ=    25.0133
   Eigenvalues:    20.6970    23.4579    27.5423
     43  H    Isotropic =    23.0823   Anisotropy =     5.5539
   XX=    24.9661   YX=     0.8811   ZX=     0.8310
   XY=    -1.2264   YY=    19.7765   ZY=     2.1490
   XZ=     3.0785   YZ=     0.4645   ZZ=    24.5043
   Eigenvalues:    19.3533    23.1088    26.7849
     44  C    Isotropic =    45.6149   Anisotropy =   171.6710
   XX=    26.6561   YX=   -80.3926   ZX=   -97.3378
   XY=   -46.9607   YY=    80.2430   ZY=    43.9531
   XZ=   -59.2180   YZ=    10.3310   ZZ=    29.9455
   Eigenvalues:   -56.2992    33.0816   160.0622
     45  H    Isotropic =    23.6767   Anisotropy =     5.0081
   XX=    21.0627   YX=     0.6573   ZX=    -3.0158
   XY=     1.9240   YY=    26.0048   ZY=    -0.0972
   XZ=    -1.8741   YZ=    -1.2898   ZZ=    23.9625
   Eigenvalues:    19.5719    24.4428    27.0154
     46  C    Isotropic =    42.3228   Anisotropy =   196.2248
   XX=    37.2944   YX=  -113.6730   ZX=   -43.1174
   XY=  -101.6101   YY=    57.6131   ZY=    40.8157
   XZ=   -16.2219   YZ=    39.7462   ZZ=    32.0609
   Eigenvalues:   -60.9935    14.8226   173.1393
     47  H    Isotropic =    23.2642   Anisotropy =     3.8747
   XX=    21.5533   YX=    -1.3870   ZX=     1.2837
   XY=    -0.7673   YY=    22.8924   ZY=    -0.6076
   XZ=     0.4618   YZ=    -0.8172   ZZ=    25.3469
   Eigenvalues:    20.9113    23.0340    25.8474
     48  C    Isotropic =    46.6522   Anisotropy =   167.7553
   XX=    76.0262   YX=   -77.1682   ZX=   -20.2829
   XY=   -59.3891   YY=    82.1075   ZY=    44.9163
   XZ=   -19.4418   YZ=    39.0063   ZZ=   -18.1772
   Eigenvalues:   -33.7203    15.1878   158.4890
     49  C    Isotropic =   -36.1467   Anisotropy =   180.6294
   XX=    68.3079   YX=   -42.2961   ZX=    -9.2393
   XY=   -54.4250   YY=   -62.3028   ZY=   -13.7950
   XZ=    -5.3352   YZ=   -22.2825   ZZ=  -114.4452
   Eigenvalues:  -122.8965   -69.8165    84.2729
     50  O    Isotropic =  -324.7139   Anisotropy =   964.2539
   XX=   186.1714   YX=  -325.8186   ZX=    46.3886
   XY=  -400.2174   YY=  -680.6814   ZY=   184.9408
   XZ=    83.3503   YZ=   156.2593   ZZ=  -479.6316
   Eigenvalues:  -893.1624  -399.1013   318.1220
     51  C    Isotropic =   120.3356   Anisotropy =    17.8360
   XX=   116.1039   YX=   -10.8115   ZX=     7.6975
   XY=     3.1671   YY=   130.6852   ZY=     4.3784
   XZ=    -0.5310   YZ=     3.9324   ZZ=   114.2177
   Eigenvalues:   109.9293   118.8512   132.2263
     52  H    Isotropic =    27.7283   Anisotropy =     2.7075
   XX=    29.3551   YX=    -0.9870   ZX=    -1.1623
   XY=    -0.1924   YY=    27.0174   ZY=    -2.1340
   XZ=     0.4560   YZ=    -2.3395   ZZ=    26.8123
   Eigenvalues:    24.5836    29.0679    29.5333
     53  H    Isotropic =    27.4341   Anisotropy =     7.1884
   XX=    24.7045   YX=    -2.0559   ZX=     2.4043
   XY=    -0.3102   YY=    29.9182   ZY=    -1.9949
   XZ=     0.6524   YZ=    -3.5209   ZZ=    27.6797
   Eigenvalues:    24.0592    26.0168    32.2264
     54  N    Isotropic =   131.8390   Anisotropy =    94.3975
   XX=   141.4289   YX=    17.8346   ZX=    -9.9234
   XY=    30.3809   YY=   139.9651   ZY=    42.9254
   XZ=   -65.5166   YZ=    88.5354   ZZ=   114.1230
   Eigenvalues:    40.4558   160.2905   194.7707
     55  H    Isotropic =    26.5572   Anisotropy =     7.4558
   XX=    27.9626   YX=    -4.0803   ZX=     3.9426
   XY=     0.7727   YY=    25.3924   ZY=     3.9572
   XZ=     4.6430   YZ=     0.9779   ZZ=    26.3164
   Eigenvalues:    20.8443    27.2994    31.5277
     56  C    Isotropic =     6.5940   Anisotropy =   119.9547
   XX=    77.0966   YX=    27.7718   ZX=   -24.4736
   XY=    29.3169   YY=   -72.8768   ZY=     5.6033
   XZ=   -10.0102   YZ=    -9.4427   ZZ=    15.5624
   Eigenvalues:   -78.1424    11.3607    86.5638
     57  O    Isotropic =   -88.8699   Anisotropy =   598.4433
   XX=   275.8032   YX=    57.8082   ZX=   -97.7078
   XY=    49.7396   YY=  -191.2150   ZY=   -32.3601
   XZ=  -167.8225   YZ=   -46.7721   ZZ=  -351.1979
   Eigenvalues:  -382.3938  -194.3082   310.0923
     58  C    Isotropic =   116.3031   Anisotropy =    14.7027
   XX=   109.0066   YX=    -0.9039   ZX=    -4.0839
   XY=    -3.2884   YY=   116.1300   ZY=     2.4813
   XZ=    -3.1917   YZ=     4.4093   ZZ=   123.7728
   Eigenvalues:   107.9419   114.8626   126.1049
     59  H    Isotropic =    26.9397   Anisotropy =     7.1405
   XX=    26.1981   YX=    -0.0253   ZX=     0.7259
   XY=     0.9535   YY=    24.5310   ZY=     3.3886
   XZ=     2.6876   YZ=     1.8745   ZZ=    30.0901
   Eigenvalues:    23.4656    25.6535    31.7000
     60  C    Isotropic =    34.2554   Anisotropy =   187.4275
   XX=    -9.2845   YX=   -70.2105   ZX=    58.5589
   XY=   -69.5819   YY=    87.5184   ZY=   -49.0854
   XZ=    70.8460   YZ=   -34.1844   ZZ=    24.5322
   Eigenvalues:   -67.0698    10.6289   159.2071
     61  C    Isotropic =    42.4582   Anisotropy =   171.7775
   XX=    63.6354   YX=   -28.4010   ZX=    43.1070
   XY=   -40.7570   YY=    96.5876   ZY=   -66.7047
   XZ=    45.1179   YZ=   -79.9409   ZZ=   -32.8485
   Eigenvalues:   -71.4296    41.8277   156.9765
     62  H    Isotropic =    23.8862   Anisotropy =     8.6347
   XX=    26.3475   YX=     3.8888   ZX=     1.4867
   XY=     4.1924   YY=    24.0744   ZY=     1.1048
   XZ=     0.6169   YZ=     0.7665   ZZ=    21.2366
   Eigenvalues:    20.8986    21.1173    29.6427
     63  C    Isotropic =    50.8008   Anisotropy =   187.0994
   XX=    22.7925   YX=   -70.8936   ZX=    -7.9741
   XY=   -83.3735   YY=    96.9701   ZY=   -78.6359
   XZ=    -0.3465   YZ=   -75.9756   ZZ=    32.6399
   Eigenvalues:   -55.1235    31.9923   175.5338
     64  H    Isotropic =    24.3773   Anisotropy =     5.5080
   XX=    26.8256   YX=     2.9228   ZX=    -2.1122
   XY=     0.9320   YY=    21.7768   ZY=     0.9010
   XZ=    -1.6455   YZ=     2.1509   ZZ=    24.5295
   Eigenvalues:    20.1224    24.9602    28.0493
     65  C    Isotropic =    45.4979   Anisotropy =   191.4879
   XX=   -24.0928   YX=   -64.1724   ZX=    67.0064
   XY=   -37.5868   YY=   122.0352   ZY=   -50.6626
   XZ=    63.3703   YZ=   -46.7951   ZZ=    38.5514
   Eigenvalues:   -66.9601    30.2974   173.1566
     66  H    Isotropic =    23.8228   Anisotropy =     5.8700
   XX=    23.9308   YX=     1.6201   ZX=     0.5597
   XY=     3.2528   YY=    23.5643   ZY=     2.2892
   XZ=     1.1519   YZ=     2.7223   ZZ=    23.9734
   Eigenvalues:    20.6363    23.0960    27.7361
     67  C    Isotropic =    41.0381   Anisotropy =   195.6275
   XX=    47.5184   YX=   -31.7212   ZX=    52.6978
   XY=   -37.4913   YY=    98.8531   ZY=   -92.3337
   XZ=    48.6639   YZ=   -88.6576   ZZ=   -23.2572
   Eigenvalues:   -78.5597    30.2176   171.4564
     68  H    Isotropic =    23.1389   Anisotropy =     8.8970
   XX=    26.5347   YX=     4.0175   ZX=     0.4043
   XY=     3.9116   YY=    22.4012   ZY=    -0.3764
   XZ=     1.7484   YZ=     0.9201   ZZ=    20.4807
   Eigenvalues:    19.8050    20.5414    29.0702
     69  C    Isotropic =    46.4942   Anisotropy =   193.5138
   XX=    18.9083   YX=   -79.5120   ZX=     3.8067
   XY=   -90.0973   YY=    89.3945   ZY=   -69.0663
   XZ=     6.2795   YZ=   -77.6919   ZZ=    31.1797
   Eigenvalues:   -57.2176    21.1968   175.5034
     70  H    Isotropic =    24.9764   Anisotropy =     6.6150
   XX=    24.2068   YX=    -2.5768   ZX=    -4.1874
   XY=     0.7164   YY=    23.4189   ZY=     0.4263
   XZ=    -1.3783   YZ=     2.2668   ZZ=    27.3036
   Eigenvalues:    22.5398    23.0031    29.3864
     71  C    Isotropic =   135.8105   Anisotropy =    58.3959
   XX=   127.6198   YX=    13.3073   ZX=    10.7257
   XY=    17.7269   YY=   134.6555   ZY=    28.7315
   XZ=    11.5144   YZ=    25.3606   ZZ=   145.1560
   Eigenvalues:   110.2533   122.4370   174.7411
     72  H    Isotropic =    29.0222   Anisotropy =     7.1560
   XX=    29.8312   YX=     4.5183   ZX=     1.3862
   XY=     2.3233   YY=    30.7928   ZY=    -0.3819
   XZ=     0.4765   YZ=    -0.0767   ZZ=    26.4427
   Eigenvalues:    25.7571    27.5167    33.7929
     73  H    Isotropic =    28.4940   Anisotropy =     4.7444
   XX=    29.5905   YX=    -2.1792   ZX=     2.5415
   XY=    -1.8505   YY=    27.0201   ZY=     1.7362
   XZ=     1.4068   YZ=    -0.9874   ZZ=    28.8715
   Eigenvalues:    25.3788    28.4463    31.6570
     74  H    Isotropic =    29.0040   Anisotropy =     6.6699
   XX=    31.5265   YX=    -0.3061   ZX=    -0.8448
   XY=    -3.1258   YY=    27.0504   ZY=     0.9004
   XZ=    -4.1040   YZ=     0.6626   ZZ=    28.4351
   Eigenvalues:    26.4644    27.0970    33.4506
     75  S    Isotropic =   174.5699   Anisotropy =   500.8941
   XX=   401.9040   YX=   175.8715   ZX=  -147.5907
   XY=    64.0626   YY=    19.6373   ZY=   -11.0491
   XZ=  -180.4611   YZ=   -86.5159   ZZ=   102.1685
   Eigenvalues:   -14.9366    30.1470   508.4993
     76  C    Isotropic =   136.7576   Anisotropy =    63.8751
   XX=   127.5019   YX=    -8.4100   ZX=    21.5359
   XY=    -5.6196   YY=   148.8329   ZY=   -34.8230
   XZ=    16.5879   YZ=   -27.3940   ZZ=   133.9379
   Eigenvalues:   103.6334   127.2983   179.3410
     77  H    Isotropic =    29.4678   Anisotropy =     9.1215
   XX=    29.0097   YX=     2.3960   ZX=    -2.2711
   XY=     2.7104   YY=    30.1251   ZY=    -3.9372
   XZ=    -2.1442   YZ=    -4.2387   ZZ=    29.2685
   Eigenvalues:    25.5842    27.2704    35.5488
     78  H    Isotropic =    29.4284   Anisotropy =     4.3287
   XX=    31.0579   YX=    -0.9885   ZX=    -0.6104
   XY=    -2.7820   YY=    29.3136   ZY=     1.3185
   XZ=     0.8524   YZ=    -2.6916   ZZ=    27.9138
   Eigenvalues:    27.4607    28.5103    32.3142
     79  H    Isotropic =    29.6267   Anisotropy =     5.9963
   XX=    30.4611   YX=     1.7943   ZX=     2.3020
   XY=     0.0090   YY=    26.8002   ZY=    -1.0331
   XZ=     2.7165   YZ=    -1.0222   ZZ=    31.6188
   Eigenvalues:    26.0445    29.2114    33.6243
     80  O    Isotropic =   260.9136   Anisotropy =   205.1736
   XX=   213.0018   YX=   -41.3438   ZX=    98.7981
   XY=  -117.8724   YY=   193.5592   ZY=    53.3614
   XZ=    27.2712   YZ=    -0.4447   ZZ=   376.1798
   Eigenvalues:   108.6295   276.4153   397.6960
 End of Minotr F.D. properties file   721 does not exist.
 End of Minotr F.D. properties file   722 does not exist.
 End of Minotr F.D. properties file   788 does not exist.
 Leave Link 1002 at Tue Aug 10 21:24:14 2021, MaxMem=  6442450944 cpu:           58658.9 elap:            5912.3
 (Enter /software/sse/easybuild/prefix/software/Gaussian/16.C.01-avx2-nsc1/g16/l601.exe)
 Copying SCF densities to generalized density rwf, IOpCl= 0 IROHF=0.

 **********************************************************************

            Population analysis using the SCF Density.

 **********************************************************************

 Orbital symmetries:
       Occupied  (A) (A) (A) (A) (A) (A) (A) (A) (A) (A) (A) (A)
                 (A) (A) (A) (A) (A) (A) (A) (A) (A) (A) (A) (A)
                 (A) (A) (A) (A) (A) (A) (A) (A) (A) (A) (A) (A)
                 (A) (A) (A) (A) (A) (A) (A) (A) (A) (A) (A) (A)
                 (A) (A) (A) (A) (A) (A) (A) (A) (A) (A) (A) (A)
                 (A) (A) (A) (A) (A) (A) (A) (A) (A) (A) (A) (A)
                 (A) (A) (A) (A) (A) (A) (A) (A) (A) (A) (A) (A)
                 (A) (A) (A) (A) (A) (A) (A) (A) (A) (A) (A) (A)
                 (A) (A) (A) (A) (A) (A) (A) (A) (A) (A) (A) (A)
                 (A) (A) (A) (A) (A) (A) (A) (A) (A) (A) (A) (A)
                 (A) (A) (A) (A) (A) (A) (A) (A) (A) (A) (A) (A)
                 (A) (A) (A) (A) (A) (A) (A) (A) (A) (A) (A) (A)
                 (A) (A) (A) (A) (A) (A) (A) (A) (A) (A) (A) (A)
                 (A) (A) (A) (A) (A)
       Virtual   (A) (A) (A) (A) (A) (A) (A) (A) (A) (A) (A) (A)
                 (A) (A) (A) (A) (A) (A) (A) (A) (A) (A) (A) (A)
                 (A) (A) (A) (A) (A) (A) (A) (A) (A) (A) (A) (A)
                 (A) (A) (A) (A) (A) (A) (A) (A) (A) (A) (A) (A)
                 (A) (A) (A) (A) (A) (A) (A) (A) (A) (A) (A) (A)
                 (A) (A) (A) (A) (A) (A) (A) (A) (A) (A) (A) (A)
                 (A) (A) (A) (A) (A) (A) (A) (A) (A) (A) (A) (A)
                 (A) (A) (A) (A) (A) (A) (A) (A) (A) (A) (A) (A)
                 (A) (A) (A) (A) (A) (A) (A) (A) (A) (A) (A) (A)
                 (A) (A) (A) (A) (A) (A) (A) (A) (A) (A) (A) (A)
                 (A) (A) (A) (A) (A) (A) (A) (A) (A) (A) (A) (A)
                 (A) (A) (A) (A) (A) (A) (A) (A) (A) (A) (A) (A)
                 (A) (A) (A) (A) (A) (A) (A) (A) (A) (A) (A) (A)
                 (A) (A) (A) (A) (A) (A) (A) (A) (A) (A) (A) (A)
                 (A) (A) (A) (A) (A) (A) (A) (A) (A) (A) (A) (A)
                 (A) (A) (A) (A) (A) (A) (A) (A) (A) (A) (A) (A)
                 (A) (A) (A) (A) (A) (A) (A) (A) (A) (A) (A) (A)
                 (A) (A) (A) (A) (A) (A) (A) (A) (A) (A) (A) (A)
                 (A) (A) (A) (A) (A) (A) (A) (A) (A) (A) (A) (A)
                 (A) (A) (A) (A) (A) (A) (A) (A) (A) (A) (A) (A)
                 (A) (A) (A) (A) (A) (A) (A) (A) (A) (A) (A) (A)
                 (A) (A) (A) (A) (A) (A) (A) (A) (A) (A) (A) (A)
                 (A) (A) (A) (A) (A) (A) (A) (A) (A) (A) (A) (A)
                 (A) (A) (A) (A) (A) (A) (A) (A) (A) (A) (A) (A)
                 (A) (A) (A) (A) (A) (A) (A) (A) (A) (A) (A) (A)
                 (A) (A) (A) (A) (A) (A) (A) (A) (A) (A) (A) (A)
                 (A) (A) (A) (A) (A) (A) (A) (A) (A) (A) (A) (A)
                 (A) (A) (A) (A) (A) (A) (A) (A) (A) (A) (A) (A)
                 (A) (A) (A) (A) (A) (A) (A) (A) (A) (A) (A) (A)
                 (A) (A) (A) (A) (A) (A) (A) (A) (A) (A) (A) (A)
                 (A) (A) (A) (A) (A) (A) (A) (A) (A) (A) (A) (A)
                 (A) (A) (A) (A) (A) (A) (A) (A) (A) (A) (A) (A)
                 (A) (A) (A) (A) (A) (A) (A) (A) (A) (A) (A) (A)
                 (A) (A) (A) (A) (A) (A) (A) (A) (A) (A) (A) (A)
                 (A) (A) (A) (A) (A) (A) (A) (A) (A) (A) (A) (A)
                 (A) (A) (A) (A) (A) (A) (A) (A) (A) (A) (A) (A)
                 (A) (A) (A) (A) (A) (A) (A) (A) (A) (A) (A) (A)
                 (A) (A) (A) (A) (A) (A) (A) (A) (A) (A) (A) (A)
                 (A) (A) (A) (A) (A) (A) (A) (A) (A) (A) (A) (A)
                 (A) (A) (A) (A) (A) (A) (A) (A) (A) (A) (A) (A)
                 (A) (A) (A) (A) (A) (A) (A) (A) (A) (A) (A) (A)
                 (A) (A) (A) (A) (A) (A) (A) (A) (A) (A) (A) (A)
                 (A) (A) (A) (A) (A) (A) (A) (A) (A) (A) (A) (A)
                 (A) (A) (A) (A) (A) (A) (A) (A) (A) (A) (A) (A)
                 (A) (A) (A) (A) (A) (A) (A) (A) (A) (A) (A) (A)
                 (A) (A) (A) (A) (A) (A) (A) (A) (A) (A) (A) (A)
                 (A) (A) (A) (A) (A) (A) (A) (A) (A) (A) (A) (A)
                 (A) (A) (A) (A) (A) (A) (A) (A) (A) (A) (A) (A)
                 (A) (A) (A) (A) (A) (A) (A) (A) (A) (A) (A) (A)
                 (A) (A) (A) (A) (A) (A) (A) (A) (A) (A) (A) (A)
                 (A) (A) (A) (A) (A) (A) (A) (A) (A) (A) (A) (A)
                 (A) (A) (A) (A) (A) (A) (A) (A) (A) (A) (A) (A)
                 (A) (A) (A) (A) (A) (A) (A) (A) (A) (A) (A) (A)
                 (A) (A) (A) (A) (A) (A) (A) (A) (A) (A) (A) (A)
                 (A) (A) (A) (A) (A) (A) (A) (A) (A) (A) (A) (A)
                 (A) (A) (A) (A) (A) (A) (A) (A) (A) (A) (A) (A)
                 (A) (A) (A) (A) (A) (A) (A) (A) (A) (A) (A) (A)
                 (A) (A) (A) (A) (A) (A) (A) (A) (A) (A) (A) (A)
                 (A) (A) (A) (A) (A) (A) (A) (A) (A) (A) (A) (A)
                 (A) (A) (A) (A) (A) (A) (A) (A) (A) (A) (A) (A)
                 (A) (A) (A) (A) (A) (A) (A) (A) (A) (A) (A) (A)
                 (A) (A) (A) (A) (A) (A) (A) (A) (A) (A) (A) (A)
                 (A) (A) (A) (A) (A) (A) (A) (A) (A) (A) (A) (A)
                 (A) (A) (A) (A) (A) (A) (A) (A) (A) (A) (A) (A)
                 (A) (A) (A) (A) (A) (A) (A) (A) (A) (A) (A) (A)
                 (A) (A) (A) (A) (A) (A) (A) (A) (A) (A) (A) (A)
                 (A) (A) (A) (A) (A) (A) (A) (A) (A) (A) (A) (A)
                 (A) (A) (A) (A) (A) (A) (A) (A) (A) (A) (A) (A)
                 (A) (A) (A) (A) (A) (A) (A) (A) (A) (A) (A) (A)
                 (A) (A) (A) (A) (A) (A) (A) (A) (A) (A) (A) (A)
                 (A) (A) (A) (A) (A) (A) (A) (A) (A) (A) (A) (A)
                 (A) (A) (A) (A) (A) (A) (A) (A) (A) (A) (A) (A)
                 (A) (A) (A) (A) (A) (A) (A) (A) (A) (A) (A) (A)
                 (A) (A) (A) (A) (A) (A) (A) (A) (A) (A) (A) (A)
                 (A) (A) (A) (A) (A) (A) (A) (A) (A) (A) (A) (A)
                 (A) (A) (A) (A) (A) (A) (A) (A) (A) (A) (A) (A)
                 (A) (A) (A) (A) (A) (A) (A) (A) (A) (A) (A) (A)
                 (A) (A) (A) (A) (A) (A) (A) (A) (A) (A) (A) (A)
                 (A) (A) (A) (A) (A) (A) (A) (A) (A) (A) (A) (A)
                 (A) (A) (A) (A) (A) (A) (A) (A) (A) (A) (A) (A)
                 (A) (A) (A) (A) (A) (A) (A) (A) (A) (A) (A) (A)
                 (A) (A) (A) (A) (A) (A) (A) (A) (A) (A) (A) (A)
                 (A) (A) (A) (A) (A) (A) (A) (A) (A) (A) (A) (A)
                 (A) (A) (A) (A) (A) (A) (A) (A) (A) (A) (A) (A)
                 (A) (A) (A) (A) (A) (A) (A) (A) (A) (A) (A) (A)
                 (A) (A) (A) (A) (A) (A) (A) (A) (A) (A) (A) (A)
                 (A) (A) (A) (A) (A) (A) (A) (A) (A) (A) (A) (A)
                 (A) (A) (A) (A) (A) (A) (A) (A) (A) (A) (A) (A)
                 (A) (A) (A) (A) (A) (A) (A) (A) (A) (A) (A) (A)
                 (A) (A) (A) (A) (A) (A) (A) (A) (A) (A) (A) (A)
                 (A) (A) (A) (A) (A) (A) (A) (A) (A) (A) (A) (A)
                 (A) (A) (A) (A) (A) (A) (A) (A) (A) (A) (A) (A)
                 (A) (A) (A) (A) (A) (A) (A) (A) (A) (A) (A) (A)
                 (A) (A) (A) (A) (A) (A) (A) (A) (A) (A) (A) (A)
                 (A) (A) (A) (A) (A) (A) (A) (A) (A) (A) (A) (A)
                 (A) (A) (A) (A) (A) (A) (A) (A) (A) (A) (A) (A)
                 (A) (A) (A) (A) (A) (A) (A) (A) (A) (A) (A) (A)
                 (A) (A) (A) (A) (A) (A) (A) (A) (A) (A) (A) (A)
                 (A) (A) (A) (A) (A) (A) (A) (A) (A) (A) (A) (A)
                 (A) (A) (A) (A) (A) (A) (A) (A) (A) (A) (A) (A)
                 (A) (A) (A) (A) (A) (A) (A) (A) (A) (A) (A) (A)
                 (A) (A) (A) (A) (A) (A) (A) (A) (A) (A) (A) (A)
                 (A) (A) (A) (A) (A) (A) (A) (A) (A) (A) (A) (A)
                 (A) (A) (A) (A) (A) (A) (A) (A) (A) (A) (A) (A)
                 (A) (A) (A) (A) (A) (A) (A) (A) (A) (A)
 The electronic state is 1-A.
 Alpha  occ. eigenvalues --  -88.96341 -19.16724 -19.16425 -19.13710 -19.11810
 Alpha  occ. eigenvalues --  -19.11745 -19.11018 -19.10896 -14.35424 -14.34632
 Alpha  occ. eigenvalues --  -14.34572 -10.33076 -10.29759 -10.29385 -10.29142
 Alpha  occ. eigenvalues --  -10.25432 -10.24738 -10.23886 -10.23680 -10.23561
 Alpha  occ. eigenvalues --  -10.23541 -10.21234 -10.20833 -10.20568 -10.20305
 Alpha  occ. eigenvalues --  -10.19782 -10.19633 -10.19573 -10.19456 -10.19249
 Alpha  occ. eigenvalues --  -10.19061 -10.18976 -10.18792 -10.18754 -10.18681
 Alpha  occ. eigenvalues --  -10.18556 -10.18551 -10.18383 -10.18164 -10.17964
 Alpha  occ. eigenvalues --  -10.16107 -10.16008 -10.15958  -8.03909  -6.00217
 Alpha  occ. eigenvalues --   -6.00033  -5.99497  -1.13560  -1.11177  -1.07258
 Alpha  occ. eigenvalues --   -1.05693  -1.05111  -1.05041  -1.03661  -0.95754
 Alpha  occ. eigenvalues --   -0.94388  -0.92561  -0.88449  -0.87036  -0.86700
 Alpha  occ. eigenvalues --   -0.82899  -0.81323  -0.80709  -0.79957  -0.78139
 Alpha  occ. eigenvalues --   -0.77256  -0.75781  -0.75653  -0.75202  -0.74334
 Alpha  occ. eigenvalues --   -0.71857  -0.71338  -0.70432  -0.69367  -0.68722
 Alpha  occ. eigenvalues --   -0.65764  -0.64840  -0.64197  -0.62859  -0.62821
 Alpha  occ. eigenvalues --   -0.61983  -0.61519  -0.61099  -0.59564  -0.59153
 Alpha  occ. eigenvalues --   -0.57965  -0.57697  -0.56827  -0.55716  -0.53302
 Alpha  occ. eigenvalues --   -0.52572  -0.52010  -0.51774  -0.50991  -0.50337
 Alpha  occ. eigenvalues --   -0.49626  -0.49372  -0.49194  -0.48487  -0.48140
 Alpha  occ. eigenvalues --   -0.48039  -0.48011  -0.47614  -0.47258  -0.47010
 Alpha  occ. eigenvalues --   -0.46708  -0.46594  -0.45964  -0.45722  -0.45585
 Alpha  occ. eigenvalues --   -0.45253  -0.44698  -0.44643  -0.44339  -0.44051
 Alpha  occ. eigenvalues --   -0.43545  -0.43302  -0.42868  -0.42681  -0.42160
 Alpha  occ. eigenvalues --   -0.41649  -0.41548  -0.41219  -0.40781  -0.40767
 Alpha  occ. eigenvalues --   -0.40317  -0.39934  -0.39728  -0.39457  -0.39102
 Alpha  occ. eigenvalues --   -0.38981  -0.38506  -0.37952  -0.37566  -0.36956
 Alpha  occ. eigenvalues --   -0.36855  -0.36702  -0.36509  -0.36237  -0.35576
 Alpha  occ. eigenvalues --   -0.35433  -0.34304  -0.34163  -0.33236  -0.31377
 Alpha  occ. eigenvalues --   -0.31194  -0.30808  -0.29953  -0.29500  -0.28874
 Alpha  occ. eigenvalues --   -0.28650  -0.27878  -0.27725  -0.27000  -0.26937
 Alpha  occ. eigenvalues --   -0.26785  -0.26460  -0.26131  -0.25845  -0.25562
 Alpha  occ. eigenvalues --   -0.25141
 Alpha virt. eigenvalues --   -0.08640  -0.05200  -0.04449  -0.03539  -0.02820
 Alpha virt. eigenvalues --   -0.02383  -0.01628  -0.01119  -0.00903  -0.00765
 Alpha virt. eigenvalues --   -0.00357  -0.00104   0.00110   0.00370   0.00865
 Alpha virt. eigenvalues --    0.01139   0.01300   0.01561   0.01705   0.02056
 Alpha virt. eigenvalues --    0.02217   0.02421   0.02772   0.02896   0.03073
 Alpha virt. eigenvalues --    0.03432   0.03674   0.03920   0.04059   0.04213
 Alpha virt. eigenvalues --    0.04483   0.04567   0.04895   0.05051   0.05619
 Alpha virt. eigenvalues --    0.05783   0.05989   0.06121   0.06315   0.06549
 Alpha virt. eigenvalues --    0.06810   0.07076   0.07309   0.07344   0.07685
 Alpha virt. eigenvalues --    0.07716   0.08196   0.08268   0.08416   0.08954
 Alpha virt. eigenvalues --    0.09061   0.09249   0.09332   0.09508   0.09671
 Alpha virt. eigenvalues --    0.09898   0.09957   0.10055   0.10254   0.10464
 Alpha virt. eigenvalues --    0.10615   0.10726   0.10937   0.11011   0.11160
 Alpha virt. eigenvalues --    0.11259   0.11479   0.11600   0.11817   0.11907
 Alpha virt. eigenvalues --    0.12052   0.12187   0.12228   0.12472   0.12569
 Alpha virt. eigenvalues --    0.12692   0.12918   0.12953   0.13079   0.13224
[...]
 Alpha virt. eigenvalues --    1.16141   1.16433   1.16510   1.17135   1.17628
 Alpha virt. eigenvalues --    1.18105   1.18693   1.18749   1.19016   1.19343
 Alpha virt. eigenvalues --    1.19465   1.19832   1.20746   1.20966   1.21223
 Alpha virt. eigenvalues --    1.21406   1.21732   1.21880   1.22318   1.22501
 Alpha virt. eigenvalues --    1.23261   1.23647   1.23707   1.24264   1.24352
 Alpha virt. eigenvalues --    1.24846   1.25060   1.25141   1.25667   1.26076
 Alpha virt. eigenvalues --    1.26341   1.26693   1.26930   1.26999   1.27527
 Alpha virt. eigenvalues --    1.27674   1.27929   1.28293   1.28999   1.29156
 Alpha virt. eigenvalues --    1.29792   1.30012   1.30482   1.30684   1.31057
 Alpha virt. eigenvalues --    1.31542   1.31874   1.32246   1.32399   1.32774
 Alpha virt. eigenvalues --    1.32956   1.33385   1.33623   1.33910   1.34352
 Alpha virt. eigenvalues --    1.34469   1.34840   1.35008   1.35554   1.35913
 Alpha virt. eigenvalues --    1.36089   1.36462   1.36868   1.37005   1.37590
 Alpha virt. eigenvalues --    1.37770   1.38014   1.38273   1.38355   1.39085
 Alpha virt. eigenvalues --    1.39235   1.39446   1.39702   1.39950   1.40486
 Alpha virt. eigenvalues --    1.40602   1.41035   1.41450   1.41685   1.41919
 Alpha virt. eigenvalues --    1.42260   1.42705   1.42943   1.43436   1.43857
 Alpha virt. eigenvalues --    1.44363   1.44502   1.45106   1.45427   1.45686
 Alpha virt. eigenvalues --    1.46027   1.46492   1.46739   1.46752   1.47840
 Alpha virt. eigenvalues --    1.48023   1.48341   1.48742   1.48860   1.49419
 Alpha virt. eigenvalues --    1.49951   1.50351   1.50880   1.51476   1.51710
 Alpha virt. eigenvalues --    1.52349   1.52753   1.53337   1.53812   1.54098
 Alpha virt. eigenvalues --    1.54552   1.54840   1.55240   1.55654   1.56134
 Alpha virt. eigenvalues --    1.56868   1.57425   1.57490   1.58036   1.58416
 Alpha virt. eigenvalues --    1.59198   1.59559   1.59824   1.60242   1.60475
 Alpha virt. eigenvalues --    1.61473   1.61809   1.62174   1.62796   1.62999
 Alpha virt. eigenvalues --    1.63161   1.64353   1.64718   1.65080   1.65188
 Alpha virt. eigenvalues --    1.65855   1.66009   1.66509   1.66646   1.67132
 Alpha virt. eigenvalues --    1.67862   1.68385   1.68514   1.68926   1.70228
 Alpha virt. eigenvalues --    1.70545   1.70857   1.71426   1.72027   1.72959
 Alpha virt. eigenvalues --    1.74099   1.74214   1.74719   1.75080   1.75661
 Alpha virt. eigenvalues --    1.75975   1.76466   1.76627   1.77184   1.77883
 Alpha virt. eigenvalues --    1.78300   1.79183   1.79577   1.80062   1.80658
 Alpha virt. eigenvalues --    1.81188   1.81315   1.81885   1.82621   1.83616
 Alpha virt. eigenvalues --    1.83714   1.84044   1.84598   1.85275   1.85626
 Alpha virt. eigenvalues --    1.85819   1.86741   1.86904   1.87528   1.87683
 Alpha virt. eigenvalues --    1.88381   1.88777   1.89432   1.89511   1.90196
 Alpha virt. eigenvalues --    1.90918   1.91601   1.92111   1.92190   1.92374
 Alpha virt. eigenvalues --    1.93358   1.94168   1.94652   1.94895   1.95303
 Alpha virt. eigenvalues --    1.96526   1.97170   1.97494   1.98597   1.98789
 Alpha virt. eigenvalues --    1.99340   1.99593   2.00280   2.01156   2.01355
 Alpha virt. eigenvalues --    2.02184   2.02367   2.02897   2.04038   2.04377
 Alpha virt. eigenvalues --    2.05114   2.05528   2.06364   2.06876   2.07601
 Alpha virt. eigenvalues --    2.08156   2.09130   2.09710   2.10550   2.11193
 Alpha virt. eigenvalues --    2.11549   2.12552   2.13500   2.13616   2.14261
 Alpha virt. eigenvalues --    2.15813   2.16333   2.17021   2.17271   2.17823
 Alpha virt. eigenvalues --    2.18836   2.18977   2.19650   2.19906   2.21533
 Alpha virt. eigenvalues --    2.23012   2.23629   2.24472   2.24784   2.25521
 Alpha virt. eigenvalues --    2.26416   2.26742   2.27104   2.27941   2.28881
 Alpha virt. eigenvalues --    2.29064   2.30023   2.30919   2.31331   2.31539
 Alpha virt. eigenvalues --    2.32494   2.32614   2.33189   2.34378   2.34534
 Alpha virt. eigenvalues --    2.34816   2.35247   2.35442   2.36396   2.36695
 Alpha virt. eigenvalues --    2.36827   2.37388   2.38346   2.38653   2.38972
 Alpha virt. eigenvalues --    2.39690   2.40306   2.40641   2.40919   2.41406
 Alpha virt. eigenvalues --    2.42354   2.42770   2.42941   2.43811   2.44160
 Alpha virt. eigenvalues --    2.44724   2.44933   2.45991   2.46430   2.47332
 Alpha virt. eigenvalues --    2.47771   2.48230   2.48636   2.49528   2.49942
 Alpha virt. eigenvalues --    2.51543   2.52122   2.52548   2.52884   2.54762
 Alpha virt. eigenvalues --    2.56022   2.56477   2.57306   2.57792   2.58183
 Alpha virt. eigenvalues --    2.58696   2.59361   2.59516   2.59678   2.60879
 Alpha virt. eigenvalues --    2.61783   2.61937   2.62892   2.63820   2.64387
 Alpha virt. eigenvalues --    2.64805   2.64988   2.66267   2.68621   2.69140
 Alpha virt. eigenvalues --    2.70990   2.73533   2.74025   2.74321   2.75413
 Alpha virt. eigenvalues --    2.75866   2.76683   2.77167   2.77402   2.78596
 Alpha virt. eigenvalues --    2.78707   2.79439   2.80621   2.81454   2.82355
 Alpha virt. eigenvalues --    2.82882   2.83302   2.83540   2.84823   2.85034
 Alpha virt. eigenvalues --    2.85737   2.86099   2.86778   2.86989   2.87317
 Alpha virt. eigenvalues --    2.87743   2.88114   2.88300   2.89245   2.89668
 Alpha virt. eigenvalues --    2.91236   2.91383   2.92033   2.92487   2.92803
 Alpha virt. eigenvalues --    2.93069   2.93629   2.94271   2.94583   2.94712
 Alpha virt. eigenvalues --    2.95322   2.95822   2.96247   2.96887   2.96971
 Alpha virt. eigenvalues --    2.97725   2.98389   2.98767   3.00385   3.00561
 Alpha virt. eigenvalues --    3.01142   3.01981   3.02649   3.03035   3.03099
 Alpha virt. eigenvalues --    3.04357   3.04472   3.05015   3.05531   3.06003
 Alpha virt. eigenvalues --    3.06686   3.07043   3.07295   3.08757   3.09131
 Alpha virt. eigenvalues --    3.09515   3.10486   3.11190   3.11974   3.12460
 Alpha virt. eigenvalues --    3.12924   3.13824   3.14617   3.14832   3.15556
 Alpha virt. eigenvalues --    3.16620   3.17457   3.17738   3.18911   3.19076
 Alpha virt. eigenvalues --    3.19627   3.19943   3.20858   3.21231   3.22323
 Alpha virt. eigenvalues --    3.22697   3.23509   3.24157   3.24862   3.25680
 Alpha virt. eigenvalues --    3.25918   3.26288   3.27319   3.27706   3.28329
 Alpha virt. eigenvalues --    3.28520   3.28825   3.29325   3.29604   3.30318
 Alpha virt. eigenvalues --    3.31326   3.31596   3.32075   3.32631   3.33512
 Alpha virt. eigenvalues --    3.34227   3.34383   3.35125   3.35353   3.35737
 Alpha virt. eigenvalues --    3.36423   3.36821   3.37092   3.37413   3.38121
 Alpha virt. eigenvalues --    3.38659   3.38968   3.39169   3.39656   3.40019
 Alpha virt. eigenvalues --    3.40717   3.41327   3.41588   3.41994   3.42118
 Alpha virt. eigenvalues --    3.42734   3.43654   3.43947   3.44773   3.45156
 Alpha virt. eigenvalues --    3.45308   3.45609   3.45993   3.46525   3.47492
 Alpha virt. eigenvalues --    3.47707   3.48243   3.48608   3.48947   3.49427
 Alpha virt. eigenvalues --    3.49611   3.50326   3.50476   3.50908   3.51805
 Alpha virt. eigenvalues --    3.52021   3.52386   3.52606   3.53522   3.54196
 Alpha virt. eigenvalues --    3.54218   3.54618   3.55724   3.55832   3.56352
 Alpha virt. eigenvalues --    3.56513   3.57140   3.57314   3.57880   3.58205
 Alpha virt. eigenvalues --    3.58671   3.58851   3.59115   3.59666   3.60004
 Alpha virt. eigenvalues --    3.60486   3.60611   3.60845   3.61356   3.61804
 Alpha virt. eigenvalues --    3.62289   3.62776   3.63181   3.63456   3.63582
 Alpha virt. eigenvalues --    3.64441   3.65109   3.65519   3.65544   3.66047
 Alpha virt. eigenvalues --    3.66377   3.66571   3.66954   3.67471   3.67632
 Alpha virt. eigenvalues --    3.68440   3.68527   3.69255   3.69503   3.70036
 Alpha virt. eigenvalues --    3.70227   3.70852   3.70955   3.71615   3.72216
 Alpha virt. eigenvalues --    3.72592   3.72947   3.73388   3.73622   3.73779
 Alpha virt. eigenvalues --    3.74526   3.74666   3.75343   3.76100   3.76301
 Alpha virt. eigenvalues --    3.76785   3.76903   3.77570   3.78119   3.78579
 Alpha virt. eigenvalues --    3.78803   3.79587   3.80498   3.80523   3.80946
 Alpha virt. eigenvalues --    3.81568   3.81690   3.82398   3.82691   3.83258
 Alpha virt. eigenvalues --    3.83686   3.84145   3.84685   3.85034   3.85979
 Alpha virt. eigenvalues --    3.86284   3.86593   3.86972   3.88308   3.88635
 Alpha virt. eigenvalues --    3.89128   3.89496   3.90931   3.91090   3.92143
 Alpha virt. eigenvalues --    3.92572   3.93191   3.93703   3.93998   3.94553
 Alpha virt. eigenvalues --    3.95095   3.95520   3.96446   3.97133   3.97264
 Alpha virt. eigenvalues --    3.97568   3.98156   3.99057   3.99653   3.99717
 Alpha virt. eigenvalues --    4.01201   4.02101   4.02877   4.05212   4.05486
 Alpha virt. eigenvalues --    4.06433   4.08653   4.10296   4.10745   4.11632
 Alpha virt. eigenvalues --    4.11876   4.12571   4.13681   4.14468   4.14929
 Alpha virt. eigenvalues --    4.16291   4.16553   4.18186   4.18983   4.19411
 Alpha virt. eigenvalues --    4.19886   4.20300   4.20639   4.20900   4.22286
 Alpha virt. eigenvalues --    4.23852   4.25038   4.25792   4.26630   4.27622
 Alpha virt. eigenvalues --    4.29969   4.31077   4.32097   4.34850   4.35158
 Alpha virt. eigenvalues --    4.35814   4.39378   4.41025   4.46009   4.46498
 Alpha virt. eigenvalues --    4.47879   4.49977   4.51603   4.52857   4.55755
 Alpha virt. eigenvalues --    4.56969   4.59916   4.61940   4.64131   4.65026
 Alpha virt. eigenvalues --    4.79673   4.82485   4.83392   4.84134   4.86278
 Alpha virt. eigenvalues --    4.87735   4.92896   4.97474   5.03941   5.07606
 Alpha virt. eigenvalues --    5.08275   5.10164   5.12240   5.13291   5.14146
 Alpha virt. eigenvalues --    5.14692   5.15039   5.16304   5.17337   5.18121
 Alpha virt. eigenvalues --    5.18749   5.19609   5.20457   5.21034   5.21913
 Alpha virt. eigenvalues --    5.22490   5.26142   5.27522   5.30070   5.33846
 Alpha virt. eigenvalues --    5.35453   5.38699   5.40430   5.42401   5.43494
 Alpha virt. eigenvalues --    5.44961   5.48524   5.51346   5.52954   5.56446
 Alpha virt. eigenvalues --    5.57115   5.58804   5.65120   5.72098   5.79533
 Alpha virt. eigenvalues --    5.99176   6.03610   6.08492   6.14151   6.17482
 Alpha virt. eigenvalues --    6.23148   6.81686   6.83916   6.85544   6.86033
 Alpha virt. eigenvalues --    6.86547   6.87417   6.87973   6.89532   6.92703
 Alpha virt. eigenvalues --    6.93778   6.99690   7.01317   7.02973   7.04397
 Alpha virt. eigenvalues --    7.04504   7.04956   7.06012   7.08351   7.10192
 Alpha virt. eigenvalues --    7.11150   7.21886   7.23015   7.25578   7.27579
 Alpha virt. eigenvalues --    7.29237   7.29920   7.30597   7.31268   7.32666
 Alpha virt. eigenvalues --    7.33846   7.34742   7.38330   7.54447   7.55436
 Alpha virt. eigenvalues --    7.60253   8.39353  17.56045  17.66931  17.72090
 Alpha virt. eigenvalues --   23.74728  23.75781  23.77751  23.89214  23.92161
 Alpha virt. eigenvalues --   23.93971  23.94038  23.96940  23.97693  23.97998
 Alpha virt. eigenvalues --   23.99838  24.00330  24.01165  24.03338  24.04321
 Alpha virt. eigenvalues --   24.04444  24.05809  24.06550  24.07507  24.08330
 Alpha virt. eigenvalues --   24.09000  24.09559  24.11401  24.14159  24.15026
 Alpha virt. eigenvalues --   24.15555  24.16642  24.17897  24.19663  24.21545
 Alpha virt. eigenvalues --   24.22891  24.25580  35.68169  35.69910  35.71124
 Alpha virt. eigenvalues --   50.02181  50.03900  50.06058  50.07639  50.07890
 Alpha virt. eigenvalues --   50.08660  50.10175 189.61415
          Condensed to atoms (all electrons):
 Mulliken charges:
               1
     1  C   -0.619003
     2  H    0.169669
     3  H    0.104044
     4  H    0.159732
     5  C    0.680696
     6  C   -0.559235
     7  H    0.176205
     8  H    0.158126
     9  H    0.166912
    10  C   -0.570659
    11  H    0.166977
    12  H    0.151504
    13  H    0.162835
    14  O   -0.311255
    15  C    0.619883
    16  O   -0.386998
    17  N   -0.657022
    18  H    0.232147
    19  C    0.138538
    20  C   -0.001438
    21  N   -0.353601
    22  H    0.162973
    23  O   -0.443845
    24  H    0.163898
    25  C   -0.774040
    26  H    0.233066
    27  H    0.184569
    28  C    0.589876
    29  C   -0.215013
    30  C    0.009445
    31  H    0.184296
    32  H    0.156166
    33  C   -0.346804
    34  H    0.180986
    35  C   -0.335265
    36  H    0.197541
    37  C    0.034198
    38  O   -0.432237
    39  C    0.337147
    40  C   -0.187782
    41  C   -0.463257
    42  H    0.193229
    43  H    0.197226
    44  C   -0.142293
    45  H    0.207163
    46  C   -0.318607
    47  H    0.214959
    48  C    0.287166
    49  C    0.096103
    50  O   -0.404823
    51  C   -0.310965
    52  H    0.190390
    53  H    0.197580
    54  N   -0.322182
    55  H   -0.005790
    56  C    0.315321
    57  O   -0.465489
    58  C    0.042089
    59  H    0.194650
    60  C    0.549101
    61  C   -0.003174
    62  H    0.177862
    63  C   -0.364345
    64  H    0.143071
    65  C   -0.451903
    66  H    0.170747
    67  C   -0.138172
    68  H    0.174176
    69  C   -0.019502
    70  H    0.444257
    71  C   -0.413456
    72  H    0.225476
    73  H    0.168149
    74  H    0.252076
    75  S    0.086080
    76  C   -0.471433
    77  H    0.220265
    78  H    0.241085
    79  H    0.232007
    80  O   -0.252068
 Sum of Mulliken charges =  -0.00000
 Mulliken charges with hydrogens summed into heavy atoms:
               1
     1  C   -0.185559
     5  C    0.680696
     6  C   -0.057991
    10  C   -0.089343
    14  O   -0.311255
    15  C    0.619883
    16  O   -0.386998
    17  N   -0.424875
    19  C    0.302436
    20  C   -0.001438
    21  N   -0.190628
    23  O   -0.443845
    25  C   -0.356406
    28  C    0.589876
    29  C   -0.058847
    30  C    0.193741
    33  C   -0.165819
    35  C   -0.137724
    37  C    0.034198
    38  O   -0.432237
    39  C    0.337147
    40  C    0.009444
    41  C   -0.270028
    44  C    0.064871
    46  C   -0.103648
    48  C    0.287166
    49  C    0.096103
    50  O   -0.404823
    51  C    0.077004
    54  N   -0.327972
    56  C    0.315321
    57  O   -0.465489
    58  C    0.236739
    60  C    0.549101
    61  C    0.174688
    63  C   -0.221274
    65  C   -0.281156
    67  C    0.036004
    69  C    0.424755
    71  C    0.232246
    75  S    0.086080
    76  C    0.221924
    80  O   -0.252068
 Electronic spatial extent (au):  <R**2>=          20366.9888
 Charge=             -0.0000 electrons
 Dipole moment (field-independent basis, Debye):
    X=              3.8678    Y=              7.5570    Z=              3.1733  Tot=              9.0630
 Quadrupole moment (field-independent basis, Debye-Ang):
   XX=           -237.1946   YY=           -282.6403   ZZ=           -287.6727
   XY=             29.9942   XZ=            -20.3864   YZ=              5.8074
 Traceless Quadrupole moment (field-independent basis, Debye-Ang):
   XX=             31.9746   YY=            -13.4711   ZZ=            -18.5035
   XY=             29.9942   XZ=            -20.3864   YZ=              5.8074
 Octapole moment (field-independent basis, Debye-Ang**2):
  XXX=             10.3214  YYY=             52.5452  ZZZ=             16.9045  XYY=             88.6888
  XXY=             69.8815  XXZ=            -27.7980  XZZ=             59.0936  YZZ=            -12.7098
  YYZ=             32.2608  XYZ=              7.5243
 Hexadecapole moment (field-independent basis, Debye-Ang**3):
 XXXX=         -13434.1120 YYYY=          -8353.4752 ZZZZ=          -6719.3173 XXXY=            609.6241
 XXXZ=           -309.7447 YYYX=            309.0511 YYYZ=            118.0499 ZZZX=           -200.2641
 ZZZY=             28.5350 XXYY=          -3673.5634 XXZZ=          -3412.4917 YYZZ=          -2196.2263
 XXYZ=              7.4339 YYXZ=            -68.2851 ZZXY=            157.8666
 N-N= 6.013925516973D+03 E-N=-1.748081094941D+04  KE= 2.322859633146D+03
 Calculating spin-rotation constants.
 Leave Link  601 at Tue Aug 10 21:29:11 2021, MaxMem=  6442450944 cpu:             415.7 elap:             297.3
 (Enter /software/sse/easybuild/prefix/software/Gaussian/16.C.01-avx2-nsc1/g16/l9999.exe)
 Unable to Open any file for archive entry.
 1\1\NSC-N198\SP\RB3LYP\6-311++G(2d,p)\C32H37N3O7S1\X_DANSE\10-Aug-2021
 \0\\#P B3LYP/6-311++G(2d,p) scf=tight Int=Ultrafine scrf(Solvent=DiMet
 hylSulfoxide) NMR\\8e\\0,1\C,0,21.782,29.412001,26.299\H,0,21.299999,2
 9.797001,25.392\H,0,22.846001,29.669001,26.370001\H,0,21.712,28.318001
 ,26.337\C,0,21.200001,30.045,27.552\C,0,21.066999,31.499001,27.191\H,0
 ,22.007,31.976,26.886999\H,0,20.327,31.799,26.438999\H,0,20.729,32.077
 999,28.058001\C,0,19.827999,29.566,28.028999\H,0,19.767,28.473,27.9629
 99\H,0,19.698,29.806999,29.091999\H,0,19.098,30.068001,27.384001\O,0,2
 2.136999,29.990999,28.576\C,0,22.504999,28.836,29.118999\O,0,22.134001
 ,27.745001,28.742001\N,0,23.452999,29.125,30.051001\H,0,23.804001,30.0
 73999,30.084999\C,0,24.030001,28.190001,31.02\C,0,24.808001,28.847,32.
 174\N,0,25.187,30.167999,32.011002\H,0,25.077,30.518,31.068001\O,0,24.
 990999,28.188999,33.194\H,0,23.143,27.815001,31.545\C,0,24.681,26.923,
 30.408001\H,0,23.867001,26.431999,29.861\H,0,24.966,26.240999,31.219\C
 ,0,25.948,27.275,29.66\C,0,25.874001,27.886999,28.448\C,0,27.160999,28
 .385,27.962999\H,0,27.047001,28.983999,27.063999\H,0,24.993999,28.33,2
 7.99\C,0,27.129999,26.865,30.275\H,0,27.134001,26.211,31.142\C,0,28.35
 1999,27.4,29.775\H,0,29.268,27.157,30.306\C,0,28.363001,28.18,28.61899
 9\O,0,29.487,28.841999,28.17\C,0,29.6,30.136,28.427999\C,0,29.879999,3
 0.471001,29.742001\C,0,29.475,31.774,30.125\H,0,29.731001,32.012001,31
 .153999\H,0,30.281,29.745001,30.444\C,0,29.131001,31.072001,27.514\H,0
 ,28.940001,30.691999,26.514999\C,0,28.695999,32.370998,27.948\H,0,28.2
 40999,33.007999,27.195\C,0,28.854,32.700001,29.298\C,0,28.208,33.88100
 1,29.944\O,0,27.903999,34.909,29.299999\C,0,27.687,33.757,31.415001\H,
 0,28.563999,33.486,32.016998\H,0,27.296,34.757,31.639999\N,0,26.617001
 ,32.707001,31.528999\H,0,26.632999,31.909,30.905001\C,0,25.938,32.4710
 01,32.705002\O,0,25.577,33.335999,33.466\C,0,25.735001,31.028,33.05199
 8\H,0,25.007999,31.091,33.870998\C,0,27.02,30.488001,33.598999\C,0,27.
 188,30.356001,35.006001\H,0,26.414,30.716999,35.675999\C,0,28.407,29.8
 79999,35.445999\H,0,28.540001,30.027,36.513\C,0,29.506001,29.59,34.617
 001\H,0,30.429001,29.179001,35.015999\C,0,29.312,29.642,33.203999\H,0,
 30.068001,29.327999,32.491001\C,0,28.028,30.058001,32.757999\H,0,27.88
 6999,30.160999,31.686001\C,0,24.995001,31.806,26.757999\H,0,24.570999,
 32.666,26.224001\H,0,24.778,30.832001,26.302\H,0,26.084,31.931,26.789\
 S,0,24.452999,31.858,28.483\C,0,24.724001,33.661999,28.499001\H,0,24.0
 17,34.289001,27.943001\H,0,25.729,33.854,28.104\H,0,24.76,34.051998,29
 .524\O,0,25.5,31.351999,29.436001\\Version=ES64L-G16RevC.01\State=1-A\
 HF=-2331.2284345\RMSD=5.576e-09\Dipole=0.2311291,1.1387344,-3.3710044\
 Quadrupole=14.5776187,-22.4522953,7.8746766,-15.9241702,19.130199,-12.
 8118554\PG=C01 [X(C32H37N3O7S1)]\\@
 The archive entry for this job was punched.


 WERE I TO AWAIT PERFECTION, MY BOOK WOULD NEVER BE FINISHED.
                                    -- HISTORY OF CHINESE WRITING

                                       TAI T'UNG, 13TH CENTURY
 Job cpu time:       1 days  3 hours 37 minutes 39.9 seconds.
 Elapsed time:       0 days  2 hours 51 minutes 45.4 seconds.
 File lengths (MBytes):  RWF=   1544 Int=      0 D2E=      0 Chk=    164 Scr=      1
 Normal termination of Gaussian 16 at Tue Aug 10 21:29:12 2021.

=== POST-JOB OUTPUT FROM THE NSC g16 WRAPPER ===
Gaussian calculation successful!
==============================================

