
===
=== NSC g16 WRAPPER, version: 1.0
===
=== This invokation of Gaussian is made via an NSC wrapper script
=== with the primary purpose of adjusting parallelization settings
=== and to discover input errors. The bare Gaussian binary is available
=== with the suffix '.orig'
===
=== NSC g16 WRAPPER: Running Gaussian in stdin mode
 Entering Gaussian System, Link 0=/software/sse/easybuild/prefix/software/Gaussian/16.C.01-avx2-nsc1/g16/g16.orig
 Initial command:
 /software/sse/easybuild/prefix/software/Gaussian/16.C.01-avx2-nsc1/g16/l1.exe "/scratch/local/Gau-100129.inp" -scrdir="/scratch/local/"
 Entering Link 1 = /software/sse/easybuild/prefix/software/Gaussian/16.C.01-avx2-nsc1/g16/l1.exe PID=    100130.
  
 Copyright (c) 1988-2019, Gaussian, Inc.  All Rights Reserved.
  
 This is part of the Gaussian(R) 16 program.  It is based on
 the Gaussian(R) 09 system (copyright 2009, Gaussian, Inc.),
 the Gaussian(R) 03 system (copyright 2003, Gaussian, Inc.),
 the Gaussian(R) 98 system (copyright 1998, Gaussian, Inc.),
 the Gaussian(R) 94 system (copyright 1995, Gaussian, Inc.),
 the Gaussian 92(TM) system (copyright 1992, Gaussian, Inc.),
 the Gaussian 90(TM) system (copyright 1990, Gaussian, Inc.),
 the Gaussian 88(TM) system (copyright 1988, Gaussian, Inc.),
 the Gaussian 86(TM) system (copyright 1986, Carnegie Mellon
 University), and the Gaussian 82(TM) system (copyright 1983,
 Carnegie Mellon University). Gaussian is a federally registered
 trademark of Gaussian, Inc.
  
 This software contains proprietary and confidential information,
 including trade secrets, belonging to Gaussian, Inc.
  
 This software is provided under written license and may be
 used, copied, transmitted, or stored only in accord with that
 written license.
  
 The following legend is applicable only to US Government
 contracts under FAR:
  
                    RESTRICTED RIGHTS LEGEND
  
 Use, reproduction and disclosure by the US Government is
 subject to restrictions as set forth in subparagraphs (a)
 and (c) of the Commercial Computer Software - Restricted
 Rights clause in FAR 52.227-19.
  
 Gaussian, Inc.
 340 Quinnipiac St., Bldg. 40, Wallingford CT 06492
  
  
 ---------------------------------------------------------------
 Warning -- This program may not be used in any manner that
 competes with the business of Gaussian, Inc. or will provide
 assistance to any competitor of Gaussian, Inc.  The licensee
 of this program is prohibited from giving any competitor of
 Gaussian, Inc. access to this program.  By using this program,
 the user acknowledges that Gaussian, Inc. is engaged in the
 business of creating and licensing software in the field of
 computational chemistry and represents and warrants to the
 licensee that it is not a competitor of Gaussian, Inc. and that
 it will not use this program in any manner prohibited above.
 ---------------------------------------------------------------
  

 Cite this work as:
 Gaussian 16, Revision C.01,
 M. J. Frisch, G. W. Trucks, H. B. Schlegel, G. E. Scuseria, 
 M. A. Robb, J. R. Cheeseman, G. Scalmani, V. Barone, 
 G. A. Petersson, H. Nakatsuji, X. Li, M. Caricato, A. V. Marenich, 
 J. Bloino, B. G. Janesko, R. Gomperts, B. Mennucci, H. P. Hratchian, 
 J. V. Ortiz, A. F. Izmaylov, J. L. Sonnenberg, D. Williams-Young, 
 F. Ding, F. Lipparini, F. Egidi, J. Goings, B. Peng, A. Petrone, 
 T. Henderson, D. Ranasinghe, V. G. Zakrzewski, J. Gao, N. Rega, 
 G. Zheng, W. Liang, M. Hada, M. Ehara, K. Toyota, R. Fukuda, 
 J. Hasegawa, M. Ishida, T. Nakajima, Y. Honda, O. Kitao, H. Nakai, 
 T. Vreven, K. Throssell, J. A. Montgomery, Jr., J. E. Peralta, 
 F. Ogliaro, M. J. Bearpark, J. J. Heyd, E. N. Brothers, K. N. Kudin, 
 V. N. Staroverov, T. A. Keith, R. Kobayashi, J. Normand, 
 K. Raghavachari, A. P. Rendell, J. C. Burant, S. S. Iyengar, 
 J. Tomasi, M. Cossi, J. M. Millam, M. Klene, C. Adamo, R. Cammi, 
 J. W. Ochterski, R. L. Martin, K. Morokuma, O. Farkas, 
 J. B. Foresman, and D. J. Fox, Gaussian, Inc., Wallingford CT, 2019.
 
 ******************************************
 Gaussian 16:  ES64L-G16RevC.01  3-Jul-2019
                10-Aug-2021 
 ******************************************
 %chk=8e.chk
 %mem=48GB
 %NProcShared=10
 Will use up to   10 processors via shared memory.
 ----------------------------------------------------------------------
 #P B3LYP/6-311++G(2d,p) scf=tight Int=Ultrafine scrf(Solvent=DiMethylS
 ulfoxide) NMR
 ----------------------------------------------------------------------
 1/38=1,172=1/1;
 2/12=2,17=6,18=5,40=1/2;
 3/5=4,6=6,7=1112,11=2,25=1,30=1,70=2201,72=21,74=-5,75=-5/1,2,3,8;
 4//1;
 5/5=2,32=2,38=5,53=21/2;
 8/6=1,10=90,11=11/1;
 10/13=100,45=16/2;
 6/7=2,8=2,9=2,10=2,28=1/1;
 99/9=1/99;
 Leave Link    1 at Tue Aug 10 19:16:23 2021, MaxMem=  6442450944 cpu:               1.0 elap:               0.2
 (Enter /software/sse/easybuild/prefix/software/Gaussian/16.C.01-avx2-nsc1/g16/l101.exe)
 --
 8e
 --
 Symbolic Z-matrix:
 Charge =  0 Multiplicity = 1
 C                     19.384    29.328    28.619 
 H                     18.449    29.678    28.164 
 H                     19.463    28.35     28.127 
 H                     19.33     29.146    29.699 
 C                     20.57     30.338    28.331 
 C                     20.615    30.658    26.777 
 H                     21.591    31.017    26.428 
 H                     20.333    29.79     26.169 
 H                     19.884    31.447    26.565 
 C                     20.467    31.64     29.093 
 H                     20.189    31.53     30.148 
 H                     21.423    32.163    28.967 
 H                     19.693    32.31     28.7 
 O                     21.789    29.566    28.631 
 C                     22.129    29.074    29.843 
 O                     21.53     29.386    30.86 
 N                     23.353    28.402    29.712 
 H                     23.735    28.369    28.775 
 C                     23.937    27.738    30.972 
 C                     24.657    28.599    31.983 
 N                     24.822    29.92     31.563 
 H                     24.372    30.1      30.674 
 O                     24.845    28.313    33.118 
 H                     23.059    27.35     31.504 
 C                     24.85     26.565    30.603 
 H                     24.401    25.821    29.933 
 H                     25.126    26.089    31.552 
 C                     26.136    27.069    29.897 
 C                     26.218    27.448    28.543 
 C                     27.302    28.077    27.956 
 H                     27.259    28.17     26.875 
 H                     25.362    27.401    27.876 
 C                     27.263    27.313    30.717 
 H                     27.223    27.01     31.759 
 C                     28.37     28.05     30.184 
 H                     29.237    28.361    30.76 
 C                     28.407    28.396    28.771 
 O                     29.399    29.14     28.165 
 C                     29.444    30.425    28.5 
 C                     30.237    30.799    29.547 
 C                     30.021    31.965    30.201 
 H                     30.658    32.223    31.042 
 H                     31.107    30.197    29.793 
 C                     28.37     31.162    28.134 
 H                     27.692    30.727    27.406 
 C                     28.156    32.451    28.723 
 H                     27.293    33.015    28.381 
 C                     28.934    32.755    29.804 
 C                     28.674    33.973    30.604 
 O                     29.614    34.616    31.079 
 C                     27.122    34.274    30.855 
 H                     27.082    35.265    31.323 
 H                     26.654    34.319    29.864 
 N                     26.55     33.217    31.682 
 H                     26.868    33.217    32.644 
 C                     25.902    32.147    31.17 
 O                     25.487    32.075    30.042 
 C                     25.612    31.02     32.157 
 H                     24.883    31.412    32.876 
 C                     26.872    30.548    32.956 
 C                     26.77     30.438    34.362 
 H                     25.86     30.794    34.836 
 C                     27.799    29.878    35.104 
 H                     27.669    29.799    36.179 
 C                     29.065    29.65     34.541 
 H                     29.951    29.528    35.158 
 C                     29.163    29.858    33.156 
 H                     30.117    29.683    32.667 
 C                     28.135    30.297    32.311 
 H                     28.257    30.427    31.24 
 C                     29.781    35.861    34.42 
 H                     30.618    36.148    35.068 
 H                     28.998    36.62     34.545 
 H                     30.015    35.76     33.353 
 S                     29.127    34.346    35.015 
 C                     30.391    33.297    34.273 
 H                     30.724    33.595    33.271 
 H                     29.989    32.302    34.047 
 H                     31.28     33.324    34.915 
 O                     27.93     34.235    34.156 
 
 ITRead=  0  0  0  0  0  0  0  0  0  0  0  0  0  0  0  0  0  0  0  0
 ITRead=  0  0  0  0  0  0  0  0  0  0  0  0  0  0  0  0  0  0  0  0
 ITRead=  0  0  0  0  0  0  0  0  0  0  0  0  0  0  0  0  0  0  0  0
 ITRead=  0  0  0  0  0  0  0  0  0  0  0  0  0  0  0  0  0  0  0  0
 MicOpt= -1 -1 -1 -1 -1 -1 -1 -1 -1 -1 -1 -1 -1 -1 -1 -1 -1 -1 -1 -1
 MicOpt= -1 -1 -1 -1 -1 -1 -1 -1 -1 -1 -1 -1 -1 -1 -1 -1 -1 -1 -1 -1
 MicOpt= -1 -1 -1 -1 -1 -1 -1 -1 -1 -1 -1 -1 -1 -1 -1 -1 -1 -1 -1 -1
 MicOpt= -1 -1 -1 -1 -1 -1 -1 -1 -1 -1 -1 -1 -1 -1 -1 -1 -1 -1 -1 -1
 NAtoms=     80 NQM=       80 NQMF=       0 NMMI=      0 NMMIF=      0
                NMic=       0 NMicF=      0.
                    Isotopes and Nuclear Properties:
 (Nuclear quadrupole moments (NQMom) in fm**2, nuclear magnetic moments (NMagM)
  in nuclear magnetons)

  Atom         1           2           3           4           5           6           7           8           9          10
 IAtWgt=          12           1           1           1          12          12           1           1           1          12
 AtmWgt=  12.0000000   1.0078250   1.0078250   1.0078250  12.0000000  12.0000000   1.0078250   1.0078250   1.0078250  12.0000000
 NucSpn=           0           1           1           1           0           0           1           1           1           0
 AtZEff=  -0.0000000  -0.0000000  -0.0000000  -0.0000000  -0.0000000  -0.0000000  -0.0000000  -0.0000000  -0.0000000  -0.0000000
 NQMom=    0.0000000   0.0000000   0.0000000   0.0000000   0.0000000   0.0000000   0.0000000   0.0000000   0.0000000   0.0000000
 NMagM=    0.0000000   2.7928460   2.7928460   2.7928460   0.0000000   0.0000000   2.7928460   2.7928460   2.7928460   0.0000000
 AtZNuc=   6.0000000   1.0000000   1.0000000   1.0000000   6.0000000   6.0000000   1.0000000   1.0000000   1.0000000   6.0000000

  Atom        11          12          13          14          15          16          17          18          19          20
 IAtWgt=           1           1           1          16          12          16          14           1          12          12
 AtmWgt=   1.0078250   1.0078250   1.0078250  15.9949146  12.0000000  15.9949146  14.0030740   1.0078250  12.0000000  12.0000000
 NucSpn=           1           1           1           0           0           0           2           1           0           0
 AtZEff=  -0.0000000  -0.0000000  -0.0000000  -0.0000000  -0.0000000  -0.0000000  -0.0000000  -0.0000000  -0.0000000  -0.0000000
 NQMom=    0.0000000   0.0000000   0.0000000   0.0000000   0.0000000   0.0000000   2.0440000   0.0000000   0.0000000   0.0000000
 NMagM=    2.7928460   2.7928460   2.7928460   0.0000000   0.0000000   0.0000000   0.4037610   2.7928460   0.0000000   0.0000000
 AtZNuc=   1.0000000   1.0000000   1.0000000   8.0000000   6.0000000   8.0000000   7.0000000   1.0000000   6.0000000   6.0000000

  Atom        21          22          23          24          25          26          27          28          29          30
 IAtWgt=          14           1          16           1          12           1           1          12          12          12
 AtmWgt=  14.0030740   1.0078250  15.9949146   1.0078250  12.0000000   1.0078250   1.0078250  12.0000000  12.0000000  12.0000000
 NucSpn=           2           1           0           1           0           1           1           0           0           0
 AtZEff=  -0.0000000  -0.0000000  -0.0000000  -0.0000000  -0.0000000  -0.0000000  -0.0000000  -0.0000000  -0.0000000  -0.0000000
 NQMom=    2.0440000   0.0000000   0.0000000   0.0000000   0.0000000   0.0000000   0.0000000   0.0000000   0.0000000   0.0000000
 NMagM=    0.4037610   2.7928460   0.0000000   2.7928460   0.0000000   2.7928460   2.7928460   0.0000000   0.0000000   0.0000000
 AtZNuc=   7.0000000   1.0000000   8.0000000   1.0000000   6.0000000   1.0000000   1.0000000   6.0000000   6.0000000   6.0000000

  Atom        31          32          33          34          35          36          37          38          39          40
 IAtWgt=           1           1          12           1          12           1          12          16          12          12
 AtmWgt=   1.0078250   1.0078250  12.0000000   1.0078250  12.0000000   1.0078250  12.0000000  15.9949146  12.0000000  12.0000000
 NucSpn=           1           1           0           1           0           1           0           0           0           0
 AtZEff=  -0.0000000  -0.0000000  -0.0000000  -0.0000000  -0.0000000  -0.0000000  -0.0000000  -0.0000000  -0.0000000  -0.0000000
 NQMom=    0.0000000   0.0000000   0.0000000   0.0000000   0.0000000   0.0000000   0.0000000   0.0000000   0.0000000   0.0000000
 NMagM=    2.7928460   2.7928460   0.0000000   2.7928460   0.0000000   2.7928460   0.0000000   0.0000000   0.0000000   0.0000000
 AtZNuc=   1.0000000   1.0000000   6.0000000   1.0000000   6.0000000   1.0000000   6.0000000   8.0000000   6.0000000   6.0000000

  Atom        41          42          43          44          45          46          47          48          49          50
 IAtWgt=          12           1           1          12           1          12           1          12          12          16
 AtmWgt=  12.0000000   1.0078250   1.0078250  12.0000000   1.0078250  12.0000000   1.0078250  12.0000000  12.0000000  15.9949146
 NucSpn=           0           1           1           0           1           0           1           0           0           0
 AtZEff=  -0.0000000  -0.0000000  -0.0000000  -0.0000000  -0.0000000  -0.0000000  -0.0000000  -0.0000000  -0.0000000  -0.0000000
 NQMom=    0.0000000   0.0000000   0.0000000   0.0000000   0.0000000   0.0000000   0.0000000   0.0000000   0.0000000   0.0000000
 NMagM=    0.0000000   2.7928460   2.7928460   0.0000000   2.7928460   0.0000000   2.7928460   0.0000000   0.0000000   0.0000000
 AtZNuc=   6.0000000   1.0000000   1.0000000   6.0000000   1.0000000   6.0000000   1.0000000   6.0000000   6.0000000   8.0000000

  Atom        51          52          53          54          55          56          57          58          59          60
 IAtWgt=          12           1           1          14           1          12          16          12           1          12
 AtmWgt=  12.0000000   1.0078250   1.0078250  14.0030740   1.0078250  12.0000000  15.9949146  12.0000000   1.0078250  12.0000000
 NucSpn=           0           1           1           2           1           0           0           0           1           0
 AtZEff=  -0.0000000  -0.0000000  -0.0000000  -0.0000000  -0.0000000  -0.0000000  -0.0000000  -0.0000000  -0.0000000  -0.0000000
 NQMom=    0.0000000   0.0000000   0.0000000   2.0440000   0.0000000   0.0000000   0.0000000   0.0000000   0.0000000   0.0000000
 NMagM=    0.0000000   2.7928460   2.7928460   0.4037610   2.7928460   0.0000000   0.0000000   0.0000000   2.7928460   0.0000000
 AtZNuc=   6.0000000   1.0000000   1.0000000   7.0000000   1.0000000   6.0000000   8.0000000   6.0000000   1.0000000   6.0000000

  Atom        61          62          63          64          65          66          67          68          69          70
 IAtWgt=          12           1          12           1          12           1          12           1          12           1
 AtmWgt=  12.0000000   1.0078250  12.0000000   1.0078250  12.0000000   1.0078250  12.0000000   1.0078250  12.0000000   1.0078250
 NucSpn=           0           1           0           1           0           1           0           1           0           1
 AtZEff=  -0.0000000  -0.0000000  -0.0000000  -0.0000000  -0.0000000  -0.0000000  -0.0000000  -0.0000000  -0.0000000  -0.0000000
 NQMom=    0.0000000   0.0000000   0.0000000   0.0000000   0.0000000   0.0000000   0.0000000   0.0000000   0.0000000   0.0000000
 NMagM=    0.0000000   2.7928460   0.0000000   2.7928460   0.0000000   2.7928460   0.0000000   2.7928460   0.0000000   2.7928460
 AtZNuc=   6.0000000   1.0000000   6.0000000   1.0000000   6.0000000   1.0000000   6.0000000   1.0000000   6.0000000   1.0000000

  Atom        71          72          73          74          75          76          77          78          79          80
 IAtWgt=          12           1           1           1          32          12           1           1           1          16
 AtmWgt=  12.0000000   1.0078250   1.0078250   1.0078250  31.9720718  12.0000000   1.0078250   1.0078250   1.0078250  15.9949146
 NucSpn=           0           1           1           1           0           0           1           1           1           0
 AtZEff=  -0.0000000  -0.0000000  -0.0000000  -0.0000000  -0.0000000  -0.0000000  -0.0000000  -0.0000000  -0.0000000  -0.0000000
 NQMom=    0.0000000   0.0000000   0.0000000   0.0000000   0.0000000   0.0000000   0.0000000   0.0000000   0.0000000   0.0000000
 NMagM=    0.0000000   2.7928460   2.7928460   2.7928460   0.0000000   0.0000000   2.7928460   2.7928460   2.7928460   0.0000000
 AtZNuc=   6.0000000   1.0000000   1.0000000   1.0000000  16.0000000   6.0000000   1.0000000   1.0000000   1.0000000   8.0000000
 Leave Link  101 at Tue Aug 10 19:16:23 2021, MaxMem=  6442450944 cpu:               1.6 elap:               0.3
 (Enter /software/sse/easybuild/prefix/software/Gaussian/16.C.01-avx2-nsc1/g16/l202.exe)
 Stoichiometry    C32H37N3O7S
 Framework group  C1[X(C32H37N3O7S)]
 Deg. of freedom   234
 Full point group                 C1      NOp   1
 Largest Abelian subgroup         C1      NOp   1
 Largest concise Abelian subgroup C1      NOp   1
                         Standard orientation:                         
 ---------------------------------------------------------------------
 Center     Atomic      Atomic             Coordinates (Angstroms)
 Number     Number       Type             X           Y           Z
 ---------------------------------------------------------------------
      1          6           0        7.140468   -2.358899   -0.084349
      2          1           0        7.918199   -3.010891   -0.501233
      3          1           0        7.725683   -1.436976    0.026852
      4          1           0        6.788213   -2.643666    0.914282
      5          6           0        5.893754   -2.266262   -1.057366
      6          6           0        6.400604   -1.917801   -2.520588
      7          1           0        5.631853   -1.463891   -3.157961
      8          1           0        7.270940   -1.250753   -2.507472
      9          1           0        6.718458   -2.847380   -3.007083
     10          6           0        5.065932   -3.530209   -1.117422
     11          1           0        4.868295   -3.992448   -0.142905
     12          1           0        4.142579   -3.284725   -1.656402
     13          1           0        5.549419   -4.336360   -1.682032
     14          8           0        5.147725   -1.086386   -0.584844
     15          6           0        4.565584   -0.958912    0.628197
     16          8           0        4.450037   -1.902936    1.393640
     17          7           0        3.961030    0.305058    0.689987
     18          1           0        4.088381    0.890445   -0.126153
     19          6           0        3.242553    0.685474    1.997130
     20          6           0        1.855302    0.144239    2.250984
     21          7           0        1.328849   -0.553355    1.162466
     22          1           0        1.992565   -0.638083    0.402516
     23          8           0        1.335248    0.060058    3.312974
     24          1           0        3.866931    0.246472    2.785725
     25          6           0        3.206748    2.205260    2.183220
     26          1           0        4.180443    2.705017    2.104470
     27          1           0        2.783255    2.375928    3.180655
     28          6           0        2.288372    2.868362    1.123442
     29          6           0        2.652363    3.126008   -0.212526
     30          6           0        1.784744    3.535925   -1.209758
     31          1           0        2.252573    3.826390   -2.145612
     32          1           0        3.636311    2.880846   -0.601854
     33          6           0        0.938259    3.081370    1.489350
     34          1           0        0.645046    2.905108    2.519949
     35          6           0       -0.018673    3.408688    0.474535
     36          1           0       -1.087525    3.503715    0.643978
     37          6           0        0.421013    3.683777   -0.885118
     38          8           0       -0.416894    3.962743   -1.945742
     39          6           0       -1.165401    2.951274   -2.372524
     40          6           0       -2.411099    2.789837   -1.836695
     41          6           0       -3.043088    1.593509   -1.894297
     42          1           0       -4.025027    1.494214   -1.440920
     43          1           0       -2.935079    3.657145   -1.445494
     44          6           0       -0.488455    1.907079   -2.903561
     45          1           0        0.553882    2.068385   -3.161269
     46          6           0       -1.147619    0.646929   -3.081769
     47          1           0       -0.570183   -0.154959   -3.532737
     48          6           0       -2.365684    0.514532   -2.477573
     49          6           0       -3.050307   -0.797211   -2.435855
     50          8           0       -4.278156   -0.860148   -2.541223
     51          6           0       -2.078316   -2.035466   -2.145575
     52          1           0       -2.689239   -2.934730   -2.289814
     53          1           0       -1.296211   -1.998254   -2.913727
     54          7           0       -1.528445   -1.915928   -0.799576
     55          1           0       -2.200208   -2.065342   -0.055948
     56          6           0       -0.324820   -1.358510   -0.539731
     57          8           0        0.527550   -1.157122   -1.365988
     58          6           0       -0.035190   -1.075851    0.931532
     59          1           0        0.046771   -2.049810    1.428273
     60          6           0       -1.164790   -0.262818    1.646912
     61          6           0       -1.654474   -0.743484    2.883240
     62          1           0       -1.307284   -1.713799    3.225963
     63          6           0       -2.539429    0.013737    3.635884
     64          1           0       -2.875367   -0.388721    4.586642
     65          6           0       -3.182562    1.138161    3.093885
     66          1           0       -4.093573    1.540066    3.528742
     67          6           0       -2.742143    1.538828    1.822431
     68          1           0       -3.196916    2.411360    1.362288
     69          6           0       -1.759400    0.905310    1.050163
     70          1           0       -1.441424    1.265031    0.076346
     71          6           0       -6.425782   -2.834361   -0.484439
     72          1           0       -7.492226   -2.765708   -0.237800
     73          1           0       -6.202129   -3.893126   -0.668263
     74          1           0       -6.095484   -2.243302   -1.347568
     75         16           0       -5.508005   -2.354119    0.931193
     76          6           0       -5.709247   -0.579772    0.686545
     77          1           0       -5.660774   -0.237795   -0.354799
     78          1           0       -4.856932   -0.029327    1.102816
     79          1           0       -6.699230   -0.291580    1.060840
     80          8           0       -4.144540   -2.690644    0.472141
 ---------------------------------------------------------------------
 Rotational constants (GHZ):           0.1082578           0.0523218           0.0491534
 Leave Link  202 at Tue Aug 10 19:16:23 2021, MaxMem=  6442450944 cpu:               0.3 elap:               0.1
 (Enter /software/sse/easybuild/prefix/software/Gaussian/16.C.01-avx2-nsc1/g16/l301.exe)
 Standard basis: 6-311++G(2d,p) (5D, 7F)
 Ernie: Thresh=  0.10000D-02 Tol=  0.10000D-05 Strict=F.
 There are  1514 symmetry adapted cartesian basis functions of A   symmetry.
 There are  1428 symmetry adapted basis functions of A   symmetry.
  1428 basis functions,  2153 primitive gaussians,  1514 cartesian basis functions
   161 alpha electrons      161 beta electrons
       nuclear repulsion energy      5765.3200233470 Hartrees.
 IExCor=  402 DFT=T Ex+Corr=B3LYP ExCW=0 ScaHFX=  0.200000
 ScaDFX=  0.800000  0.720000  1.000000  0.810000 ScalE2=  1.000000  1.000000
 IRadAn=      5 IRanWt=     -1 IRanGd=            0 ICorTp=0 IEmpDi=  4
 NAtoms=   80 NActive=   80 NUniq=   80 SFac= 1.00D+00 NAtFMM=   60 NAOKFM=T Big=T
 Integral buffers will be    131072 words long.
 Raffenetti 2 integral format.
 Two-electron integral symmetry is turned on.
 ------------------------------------------------------------------------------
 Polarizable Continuum Model (PCM)
 =================================
 Model                : PCM.
 Atomic radii         : UFF (Universal Force Field).
 Polarization charges : Total charges.
 Charge compensation  : None.
 Solution method      : On-the-fly selection.
 Cavity type          : Scaled VdW (van der Waals Surface) (Alpha=1.100).
 Cavity algorithm     : GePol (No added spheres)
                        Default sphere list used, NSphG=   80.
                        Lebedev-Laikov grids with approx.  5.0 points / Ang**2.
                        Smoothing algorithm: York/Karplus (Gamma=1.0000).
                        Polarization charges: spherical gaussians, with
                                              point-specific exponents (IZeta= 3).
                        Self-potential: point-specific (ISelfS= 7).
                        Self-field    : sphere-specific E.n sum rule (ISelfD= 2).
 Solvent              : DiMethylSulfoxide, Eps=  46.826000 Eps(inf)=   2.007889
 ------------------------------------------------------------------------------
 GePol: Number of generator spheres                  =      80
 GePol: Total number of spheres                      =      80
 GePol: Number of exposed spheres                    =      80 (100.00%)
 GePol: Number of points                             =    5122
 GePol: Average weight of points                     =       0.13
 GePol: Minimum weight of points                     =   0.27D-10
 GePol: Maximum weight of points                     =    0.20577
 GePol: Number of points with low weight             =     357
 GePol: Fraction of low-weight points (<1% of avg)   =       6.97%
 GePol: Cavity surface area                          =    644.568 Ang**2
 GePol: Cavity volume                                =    807.390 Ang**3
 Leave Link  301 at Tue Aug 10 19:16:24 2021, MaxMem=  6442450944 cpu:               1.2 elap:               0.3
 (Enter /software/sse/easybuild/prefix/software/Gaussian/16.C.01-avx2-nsc1/g16/l302.exe)
 NPDir=0 NMtPBC=     1 NCelOv=     1 NCel=       1 NClECP=     1 NCelD=      1
         NCelK=      1 NCelE2=     1 NClLst=     1 CellRange=     0.0.
 One-electron integrals computed using PRISM.
 One-electron integral symmetry used in STVInt
 NBasis=  1428 RedAO= T EigKep=  1.08D-06  NBF=  1428
 NBsUse=  1420 1.00D-06 EigRej=  7.89D-07 NBFU=  1420
 Precomputing XC quadrature grid using
 IXCGrd= 4 IRadAn=           5 IRanWt=          -1 IRanGd=           0 AccXCQ= 0.00D+00.
 Generated NRdTot=       0 NPtTot=           0 NUsed=           0 NTot=          32
 NSgBfM=  1475  1473  1473  1473  1475 MxSgAt=    80 MxSgA2=    80.
 Leave Link  302 at Tue Aug 10 19:16:28 2021, MaxMem=  6442450944 cpu:              40.8 elap:               4.3
 (Enter /software/sse/easybuild/prefix/software/Gaussian/16.C.01-avx2-nsc1/g16/l303.exe)
 DipDrv:  MaxL=1.
 Leave Link  303 at Tue Aug 10 19:16:28 2021, MaxMem=  6442450944 cpu:               2.2 elap:               0.4
 (Enter /software/sse/easybuild/prefix/software/Gaussian/16.C.01-avx2-nsc1/g16/l308.exe)
 Leave Link  308 at Tue Aug 10 19:16:29 2021, MaxMem=  6442450944 cpu:               4.8 elap:               0.8
 (Enter /software/sse/easybuild/prefix/software/Gaussian/16.C.01-avx2-nsc1/g16/l401.exe)
 ExpMin= 3.60D-02 ExpMax= 9.34D+04 ExpMxC= 3.17D+03 IAcc=3 IRadAn=         5 AccDes= 0.00D+00
 Harris functional with IExCor=  402 and IRadAn=       5 diagonalized for initial guess.
 HarFok:  IExCor=  402 AccDes= 0.00D+00 IRadAn=         5 IDoV= 1 UseB2=F ITyADJ=14
 ICtDFT=  3500011 ScaDFX=  1.000000  1.000000  1.000000  1.000000
 FoFCou: FMM=F IPFlag=           0 FMFlag=      100000 FMFlg1=        2001
         NFxFlg=           0 DoJE=T BraDBF=F KetDBF=T FulRan=T
         wScrn=  0.000000 ICntrl=       500 IOpCl=  0 I1Cent=   200000004 NGrid=           0
         NMat0=    1 NMatS0=      1 NMatT0=    0 NMatD0=    1 NMtDS0=    0 NMtDT0=    0
 Petite list used in FoFCou.
 Harris En= -2331.32669293240    
 JPrj=0 DoOrth=F DoCkMO=F.
 Leave Link  401 at Tue Aug 10 19:16:45 2021, MaxMem=  6442450944 cpu:             151.9 elap:              15.4
 (Enter /software/sse/easybuild/prefix/software/Gaussian/16.C.01-avx2-nsc1/g16/l502.exe)
 Integral symmetry usage will be decided dynamically.
 Closed shell SCF:
 Using DIIS extrapolation, IDIIS=  1040.
 NGot=  6442450944 LenX=  6437835921 LenY=  6435542211
 Requested convergence on RMS density matrix=1.00D-08 within 128 cycles.
 Requested convergence on MAX density matrix=1.00D-06.
 Requested convergence on             energy=1.00D-06.
 No special actions if energy rises.
 Fock matrices will be formed incrementally for  20 cycles.

 Cycle   1  Pass 1  IDiag  1:
 FoFJK:  IHMeth= 1 ICntrl=       0 DoSepK=F KAlg= 0 I1Cent=           0 FoldK=F
 IRaf= 830000000 NMat=       1 IRICut=       1 DoRegI=T DoRafI=F ISym2E= 0 IDoP0=0 IntGTp=1.
 FoFCou: FMM=T IPFlag=           0 FMFlag=      100000 FMFlg1=        2001
         NFxFlg=           0 DoJE=F BraDBF=F KetDBF=F FulRan=T
         wScrn=  0.000000 ICntrl=         0 IOpCl=  0 I1Cent=           0 NGrid=           0
         NMat0=    1 NMatS0=      1 NMatT0=    0 NMatD0=    1 NMtDS0=    0 NMtDT0=    0
 Symmetry not used in FoFCou.
 FMM levels:  10  Number of levels for PrismC:   9
 Inv3:  Mode=1 IEnd=    78704652.
 Iteration    1 A*A^-1 deviation from unit magnitude is 3.55D-15 for   4586.
 Iteration    1 A*A^-1 deviation from orthogonality  is 2.66D-15 for   4701   1139.
 Iteration    1 A^-1*A deviation from unit magnitude is 3.33D-15 for   4382.
 Iteration    1 A^-1*A deviation from orthogonality  is 3.33D-15 for   3714   3102.
 E= -2329.98276659167    
 DIIS: error= 1.68D-02 at cycle   1 NSaved=   1.
 NSaved= 1 IEnMin= 1 EnMin= -2329.98276659167     IErMin= 1 ErrMin= 1.68D-02
 ErrMax= 1.68D-02  0.00D+00 EMaxC= 1.00D-01 BMatC= 1.60D+00 BMatP= 1.60D+00
 IDIUse=3 WtCom= 8.32D-01 WtEn= 1.68D-01
 Coeff-Com:  0.100D+01
 Coeff-En:   0.100D+01
 Coeff:      0.100D+01
 Gap=     0.209 Goal=   None    Shift=    0.000
 GapD=    0.209 DampG=1.000 DampE=0.500 DampFc=0.5000 IDamp=-1.
 Damping current iteration by 5.00D-01
 RMSDP=1.04D-02 MaxDP=2.19D+00              OVMax= 2.63D-01

 Cycle   2  Pass 1  IDiag  1:
 RMSU=  3.93D-03    CP:  8.66D-01
 E= -2330.37766356453     Delta-E=       -0.394896972864 Rises=F Damp=T
 DIIS: error= 6.18D-03 at cycle   2 NSaved=   2.
 NSaved= 2 IEnMin= 2 EnMin= -2330.37766356453     IErMin= 2 ErrMin= 6.18D-03
 ErrMax= 6.18D-03  0.00D+00 EMaxC= 1.00D-01 BMatC= 1.94D-01 BMatP= 1.60D+00
 IDIUse=3 WtCom= 9.38D-01 WtEn= 6.18D-02
 Coeff-Com:  0.175D+00 0.825D+00
 Coeff-En:   0.305D+00 0.695D+00
 Coeff:      0.183D+00 0.817D+00
 Gap=     0.219 Goal=   None    Shift=    0.000
 RMSDP=3.97D-03 MaxDP=1.67D+00 DE=-3.95D-01 OVMax= 1.99D-01

 Cycle   3  Pass 1  IDiag  1:
 RMSU=  2.38D-03    CP:  7.52D-01  6.50D-01
 E= -2331.08479257658     Delta-E=       -0.707129012048 Rises=F Damp=F
 DIIS: error= 6.03D-03 at cycle   3 NSaved=   3.
 NSaved= 3 IEnMin= 3 EnMin= -2331.08479257658     IErMin= 3 ErrMin= 6.03D-03
 ErrMax= 6.03D-03  0.00D+00 EMaxC= 1.00D-01 BMatC= 2.03D-01 BMatP= 1.94D-01
 IDIUse=3 WtCom= 9.40D-01 WtEn= 6.03D-02
 Coeff-Com:  0.290D-01 0.505D+00 0.466D+00
 Coeff-En:   0.000D+00 0.000D+00 0.100D+01
 Coeff:      0.272D-01 0.475D+00 0.498D+00
 Gap=     0.178 Goal=   None    Shift=    0.000
 RMSDP=1.65D-03 MaxDP=4.27D-01 DE=-7.07D-01 OVMax= 6.96D-02

 Cycle   4  Pass 1  IDiag  1:
 RMSU=  1.44D-03    CP:  7.49D-01  6.95D-01  6.69D-01
 E= -2331.22417527397     Delta-E=       -0.139382697394 Rises=F Damp=F
 DIIS: error= 1.79D-03 at cycle   4 NSaved=   4.
 NSaved= 4 IEnMin= 4 EnMin= -2331.22417527397     IErMin= 4 ErrMin= 1.79D-03
 ErrMax= 1.79D-03  0.00D+00 EMaxC= 1.00D-01 BMatC= 2.28D-02 BMatP= 1.94D-01
 IDIUse=3 WtCom= 9.82D-01 WtEn= 1.79D-02
 Coeff-Com: -0.141D-01 0.136D+00 0.282D+00 0.596D+00
 Coeff-En:   0.000D+00 0.000D+00 0.969D-01 0.903D+00
 Coeff:     -0.139D-01 0.134D+00 0.279D+00 0.601D+00
 Gap=     0.173 Goal=   None    Shift=    0.000
 RMSDP=6.10D-04 MaxDP=1.19D-01 DE=-1.39D-01 OVMax= 2.26D-02

 Cycle   5  Pass 1  IDiag  1:
 RMSU=  3.88D-04    CP:  7.38D-01  7.15D-01  7.08D-01  7.40D-01
 E= -2331.24124217318     Delta-E=       -0.017066899210 Rises=F Damp=F
 DIIS: error= 5.64D-04 at cycle   5 NSaved=   5.
 NSaved= 5 IEnMin= 5 EnMin= -2331.24124217318     IErMin= 5 ErrMin= 5.64D-04
 ErrMax= 5.64D-04  0.00D+00 EMaxC= 1.00D-01 BMatC= 2.00D-03 BMatP= 2.28D-02
 IDIUse=3 WtCom= 9.94D-01 WtEn= 5.64D-03
 Coeff-Com: -0.103D-01 0.411D-01 0.118D+00 0.336D+00 0.515D+00
 Coeff-En:   0.000D+00 0.000D+00 0.000D+00 0.000D+00 0.100D+01
 Coeff:     -0.103D-01 0.409D-01 0.118D+00 0.334D+00 0.517D+00
 Gap=     0.175 Goal=   None    Shift=    0.000
 RMSDP=2.11D-04 MaxDP=7.96D-02 DE=-1.71D-02 OVMax= 7.10D-03

 Cycle   6  Pass 1  IDiag  1:
 RMSU=  1.40D-04    CP:  7.36D-01  7.23D-01  7.29D-01  7.27D-01  6.74D-01
 E= -2331.24263734425     Delta-E=       -0.001395171067 Rises=F Damp=F
 DIIS: error= 2.12D-04 at cycle   6 NSaved=   6.
 NSaved= 6 IEnMin= 6 EnMin= -2331.24263734425     IErMin= 6 ErrMin= 2.12D-04
 ErrMax= 2.12D-04  0.00D+00 EMaxC= 1.00D-01 BMatC= 3.05D-04 BMatP= 2.00D-03
 IDIUse=3 WtCom= 9.98D-01 WtEn= 2.12D-03
 Coeff-Com: -0.458D-02 0.831D-02 0.379D-01 0.134D+00 0.327D+00 0.498D+00
 Coeff-En:   0.000D+00 0.000D+00 0.000D+00 0.000D+00 0.111D+00 0.889D+00
 Coeff:     -0.457D-02 0.829D-02 0.378D-01 0.134D+00 0.326D+00 0.499D+00
 Gap=     0.175 Goal=   None    Shift=    0.000
 RMSDP=5.81D-05 MaxDP=1.03D-02 DE=-1.40D-03 OVMax= 2.59D-03

 Cycle   7  Pass 1  IDiag  1:
 RMSU=  4.38D-05    CP:  7.36D-01  7.24D-01  7.27D-01  7.34D-01  7.06D-01
                    CP:  7.62D-01
 E= -2331.24286306260     Delta-E=       -0.000225718346 Rises=F Damp=F
 DIIS: error= 6.02D-05 at cycle   7 NSaved=   7.
 NSaved= 7 IEnMin= 7 EnMin= -2331.24286306260     IErMin= 7 ErrMin= 6.02D-05
 ErrMax= 6.02D-05  0.00D+00 EMaxC= 1.00D-01 BMatC= 2.72D-05 BMatP= 3.05D-04
 IDIUse=1 WtCom= 1.00D+00 WtEn= 0.00D+00
 Coeff-Com: -0.176D-02 0.182D-02 0.130D-01 0.515D-01 0.152D+00 0.303D+00
 Coeff-Com:  0.480D+00
 Coeff:     -0.176D-02 0.182D-02 0.130D-01 0.515D-01 0.152D+00 0.303D+00
 Coeff:      0.480D+00
 Gap=     0.175 Goal=   None    Shift=    0.000
 RMSDP=1.79D-05 MaxDP=2.87D-03 DE=-2.26D-04 OVMax= 7.12D-04

 Cycle   8  Pass 1  IDiag  1:
 RMSU=  1.30D-05    CP:  7.36D-01  7.23D-01  7.28D-01  7.38D-01  6.98D-01
                    CP:  7.61D-01  7.97D-01
 E= -2331.24288464995     Delta-E=       -0.000021587351 Rises=F Damp=F
 DIIS: error= 1.65D-05 at cycle   8 NSaved=   8.
 NSaved= 8 IEnMin= 8 EnMin= -2331.24288464995     IErMin= 8 ErrMin= 1.65D-05
 ErrMax= 1.65D-05  0.00D+00 EMaxC= 1.00D-01 BMatC= 1.75D-06 BMatP= 2.72D-05
 IDIUse=1 WtCom= 1.00D+00 WtEn= 0.00D+00
 Coeff-Com: -0.247D-03-0.205D-03 0.203D-02 0.968D-02 0.390D-01 0.946D-01
 Coeff-Com:  0.240D+00 0.615D+00
 Coeff:     -0.247D-03-0.205D-03 0.203D-02 0.968D-02 0.390D-01 0.946D-01
 Coeff:      0.240D+00 0.615D+00
 Gap=     0.175 Goal=   None    Shift=    0.000
 RMSDP=4.85D-06 MaxDP=8.83D-04 DE=-2.16D-05 OVMax= 2.42D-04

 Cycle   9  Pass 1  IDiag  1:
 RMSU=  4.40D-06    CP:  7.36D-01  7.23D-01  7.28D-01  7.38D-01  7.01D-01
                    CP:  7.66D-01  7.88D-01  9.08D-01
 E= -2331.24288575752     Delta-E=       -0.000001107575 Rises=F Damp=F
 DIIS: error= 7.58D-06 at cycle   9 NSaved=   9.
 NSaved= 9 IEnMin= 9 EnMin= -2331.24288575752     IErMin= 9 ErrMin= 7.58D-06
 ErrMax= 7.58D-06  0.00D+00 EMaxC= 1.00D-01 BMatC= 2.95D-07 BMatP= 1.75D-06
 IDIUse=1 WtCom= 1.00D+00 WtEn= 0.00D+00
 Coeff-Com:  0.285D-04-0.311D-03-0.747D-07 0.760D-03 0.852D-02 0.246D-01
 Coeff-Com:  0.893D-01 0.352D+00 0.525D+00
 Coeff:      0.285D-04-0.311D-03-0.747D-07 0.760D-03 0.852D-02 0.246D-01
 Coeff:      0.893D-01 0.352D+00 0.525D+00
 Gap=     0.175 Goal=   None    Shift=    0.000
 RMSDP=1.94D-06 MaxDP=3.12D-04 DE=-1.11D-06 OVMax= 9.78D-05

 Cycle  10  Pass 1  IDiag  1:
 RMSU=  1.57D-06    CP:  7.36D-01  7.23D-01  7.28D-01  7.38D-01  7.03D-01
                    CP:  7.65D-01  7.98D-01  9.29D-01  8.82D-01
 E= -2331.24288597694     Delta-E=       -0.000000219416 Rises=F Damp=F
 DIIS: error= 2.41D-06 at cycle  10 NSaved=  10.
 NSaved=10 IEnMin=10 EnMin= -2331.24288597694     IErMin=10 ErrMin= 2.41D-06
 ErrMax= 2.41D-06  0.00D+00 EMaxC= 1.00D-01 BMatC= 3.86D-08 BMatP= 2.95D-07
 IDIUse=1 WtCom= 1.00D+00 WtEn= 0.00D+00
 Coeff-Com:  0.422D-04-0.169D-03-0.199D-03-0.526D-03 0.135D-02 0.508D-02
 Coeff-Com:  0.294D-01 0.150D+00 0.319D+00 0.496D+00
 Coeff:      0.422D-04-0.169D-03-0.199D-03-0.526D-03 0.135D-02 0.508D-02
 Coeff:      0.294D-01 0.150D+00 0.319D+00 0.496D+00
 Gap=     0.175 Goal=   None    Shift=    0.000
 RMSDP=8.43D-07 MaxDP=2.85D-04 DE=-2.19D-07 OVMax= 2.72D-05

 Cycle  11  Pass 1  IDiag  1:
 RMSU=  5.52D-07    CP:  7.36D-01  7.23D-01  7.28D-01  7.38D-01  7.03D-01
                    CP:  7.66D-01  7.99D-01  9.38D-01  9.12D-01  7.54D-01
 E= -2331.24288600476     Delta-E=       -0.000000027819 Rises=F Damp=F
 DIIS: error= 8.74D-07 at cycle  11 NSaved=  11.
 NSaved=11 IEnMin=11 EnMin= -2331.24288600476     IErMin=11 ErrMin= 8.74D-07
 ErrMax= 8.74D-07  0.00D+00 EMaxC= 1.00D-01 BMatC= 3.41D-09 BMatP= 3.86D-08
 IDIUse=1 WtCom= 1.00D+00 WtEn= 0.00D+00
 Coeff-Com:  0.183D-04-0.478D-04-0.111D-03-0.398D-03-0.372D-03-0.627D-03
 Coeff-Com:  0.412D-02 0.347D-01 0.102D+00 0.273D+00 0.588D+00
 Coeff:      0.183D-04-0.478D-04-0.111D-03-0.398D-03-0.372D-03-0.627D-03
 Coeff:      0.412D-02 0.347D-01 0.102D+00 0.273D+00 0.588D+00
 Gap=     0.175 Goal=   None    Shift=    0.000
 RMSDP=2.63D-07 MaxDP=6.88D-05 DE=-2.78D-08 OVMax= 7.65D-06

 Cycle  12  Pass 1  IDiag  1:
 RMSU=  1.90D-07    CP:  7.36D-01  7.23D-01  7.28D-01  7.38D-01  7.02D-01
                    CP:  7.66D-01  8.01D-01  9.44D-01  9.21D-01  8.04D-01
                    CP:  9.47D-01
 E= -2331.24288600731     Delta-E=       -0.000000002557 Rises=F Damp=F
 DIIS: error= 2.07D-07 at cycle  12 NSaved=  12.
 NSaved=12 IEnMin=12 EnMin= -2331.24288600731     IErMin=12 ErrMin= 2.07D-07
 ErrMax= 2.07D-07  0.00D+00 EMaxC= 1.00D-01 BMatC= 2.95D-10 BMatP= 3.41D-09
 IDIUse=1 WtCom= 1.00D+00 WtEn= 0.00D+00
 Coeff-Com:  0.468D-05-0.727D-05-0.399D-04-0.152D-03-0.293D-03-0.787D-03
 Coeff-Com: -0.429D-03 0.390D-02 0.207D-01 0.897D-01 0.292D+00 0.595D+00
 Coeff:      0.468D-05-0.727D-05-0.399D-04-0.152D-03-0.293D-03-0.787D-03
 Coeff:     -0.429D-03 0.390D-02 0.207D-01 0.897D-01 0.292D+00 0.595D+00
 Gap=     0.175 Goal=   None    Shift=    0.000
 RMSDP=8.07D-08 MaxDP=1.65D-05 DE=-2.56D-09 OVMax= 3.43D-06

 Cycle  13  Pass 1  IDiag  1:
 RMSU=  5.90D-08    CP:  7.36D-01  7.23D-01  7.28D-01  7.38D-01  7.02D-01
                    CP:  7.66D-01  8.02D-01  9.45D-01  9.27D-01  8.18D-01
                    CP:  9.66D-01  8.58D-01
 E= -2331.24288600748     Delta-E=       -0.000000000162 Rises=F Damp=F
 DIIS: error= 8.27D-08 at cycle  13 NSaved=  13.
 NSaved=13 IEnMin=13 EnMin= -2331.24288600748     IErMin=13 ErrMin= 8.27D-08
 ErrMax= 8.27D-08  0.00D+00 EMaxC= 1.00D-01 BMatC= 5.42D-11 BMatP= 2.95D-10
 IDIUse=1 WtCom= 1.00D+00 WtEn= 0.00D+00
 Coeff-Com:  0.179D-06 0.158D-05-0.108D-04-0.396D-04-0.127D-03-0.405D-03
 Coeff-Com: -0.782D-03-0.228D-02-0.164D-02 0.171D-01 0.942D-01 0.351D+00
 Coeff-Com:  0.543D+00
 Coeff:      0.179D-06 0.158D-05-0.108D-04-0.396D-04-0.127D-03-0.405D-03
 Coeff:     -0.782D-03-0.228D-02-0.164D-02 0.171D-01 0.942D-01 0.351D+00
 Coeff:      0.543D+00
 Gap=     0.175 Goal=   None    Shift=    0.000
 RMSDP=3.27D-08 MaxDP=6.55D-06 DE=-1.62D-10 OVMax= 1.13D-06

 Cycle  14  Pass 1  IDiag  1:
 RMSU=  1.78D-08    CP:  7.36D-01  7.23D-01  7.28D-01  7.38D-01  7.02D-01
                    CP:  7.66D-01  8.02D-01  9.45D-01  9.29D-01  8.24D-01
                    CP:  9.74D-01  9.05D-01  8.23D-01
 E= -2331.24288600744     Delta-E=        0.000000000032 Rises=F Damp=F
 DIIS: error= 2.17D-08 at cycle  14 NSaved=  14.
 NSaved=14 IEnMin=13 EnMin= -2331.24288600748     IErMin=14 ErrMin= 2.17D-08
 ErrMax= 2.17D-08  0.00D+00 EMaxC= 1.00D-01 BMatC= 3.78D-12 BMatP= 5.42D-11
 IDIUse=1 WtCom= 1.00D+00 WtEn= 0.00D+00
 Coeff-Com: -0.473D-06 0.153D-05-0.784D-06-0.122D-05-0.244D-04-0.102D-03
 Coeff-Com: -0.290D-03-0.139D-02-0.305D-02-0.192D-02 0.113D-01 0.102D+00
 Coeff-Com:  0.264D+00 0.630D+00
 Coeff:     -0.473D-06 0.153D-05-0.784D-06-0.122D-05-0.244D-04-0.102D-03
 Coeff:     -0.290D-03-0.139D-02-0.305D-02-0.192D-02 0.113D-01 0.102D+00
 Coeff:      0.264D+00 0.630D+00
 Gap=     0.175 Goal=   None    Shift=    0.000
 RMSDP=8.66D-09 MaxDP=1.81D-06 DE= 3.18D-11 OVMax= 4.05D-07

 Cycle  15  Pass 1  IDiag  1:
 RMSU=  5.81D-09    CP:  7.36D-01  7.23D-01  7.28D-01  7.38D-01  7.02D-01
                    CP:  7.66D-01  8.02D-01  9.45D-01  9.29D-01  8.24D-01
                    CP:  9.81D-01  9.22D-01  8.56D-01  8.71D-01
 E= -2331.24288600757     Delta-E=       -0.000000000123 Rises=F Damp=F
 DIIS: error= 1.27D-08 at cycle  15 NSaved=  15.
 NSaved=15 IEnMin=15 EnMin= -2331.24288600757     IErMin=15 ErrMin= 1.27D-08
 ErrMax= 1.27D-08  0.00D+00 EMaxC= 1.00D-01 BMatC= 6.53D-13 BMatP= 3.78D-12
 IDIUse=1 WtCom= 1.00D+00 WtEn= 0.00D+00
 Coeff-Com: -0.225D-06 0.652D-06 0.364D-06 0.210D-05-0.378D-05-0.231D-04
 Coeff-Com: -0.902D-04-0.532D-03-0.152D-02-0.272D-02-0.316D-02 0.225D-01
 Coeff-Com:  0.928D-01 0.358D+00 0.535D+00
 Coeff:     -0.225D-06 0.652D-06 0.364D-06 0.210D-05-0.378D-05-0.231D-04
 Coeff:     -0.902D-04-0.532D-03-0.152D-02-0.272D-02-0.316D-02 0.225D-01
 Coeff:      0.928D-01 0.358D+00 0.535D+00
 Gap=     0.175 Goal=   None    Shift=    0.000
 RMSDP=3.61D-09 MaxDP=7.37D-07 DE=-1.23D-10 OVMax= 1.50D-07

 Error on total polarization charges =  0.02565
 SCF Done:  E(RB3LYP) =  -2331.24288601     A.U. after   15 cycles
            NFock= 15  Conv=0.36D-08     -V/T= 2.0038
 KE= 2.322472446290D+03 PE=-1.698762128267D+04 EE= 6.568585927022D+03
 Leave Link  502 at Tue Aug 10 20:13:53 2021, MaxMem=  6442450944 cpu:           33885.2 elap:            3428.7
 (Enter /software/sse/easybuild/prefix/software/Gaussian/16.C.01-avx2-nsc1/g16/l801.exe)
 DoSCS=F DFT=T ScalE2(SS,OS)=  1.000000  1.000000
 Range of M.O.s used for correlation:     1  1420
 NBasis=  1428 NAE=   161 NBE=   161 NFC=     0 NFV=     0
 NROrb=   1420 NOA=   161 NOB=   161 NVA=  1259 NVB=  1259

 **** Warning!!: The largest alpha MO coefficient is  0.10499987D+03

 Leave Link  801 at Tue Aug 10 20:13:54 2021, MaxMem=  6442450944 cpu:               0.8 elap:               0.1
 (Enter /software/sse/easybuild/prefix/software/Gaussian/16.C.01-avx2-nsc1/g16/l1002.exe)
 Minotr:  Closed shell wavefunction.
 NEqPCM:  Using equilibrium solvation (IEInf=0, Eps=  46.8260, EpsInf=   2.0079)
          Direct CPHF calculation.
          Differentiating once with respect to magnetic field using GIAOs.
          Electric field/nuclear overlap derivatives assumed to be zero.
          Requested convergence is 1.0D-08 RMS, and 1.0D-07 maximum.
          Secondary convergence is 1.0D-12 RMS, and 1.0D-12 maximum.
          NewPWx=T KeepS1=F KeepF1=F KeepIn=T MapXYZ=F SortEE=F KeepMc=T.
        25101 words used for storage of precomputed grid.
 Two-electron integral symmetry used by symmetrizing perturbed Fock matrices.
          MDV=    6442450944 using IRadAn=       1.
          Solving linear equations simultaneously, MaxMat=      72.
 FoFJK:  IHMeth= 1 ICntrl=    6127 DoSepK=F KAlg= 0 I1Cent=           0 FoldK=F
 IRaf=         1 NMat=       1 IRICut=       1 DoRegI=T DoRafI=F ISym2E= 0 IDoP0=0 IntGTp=1.
          There are     3 degrees of freedom in the 1st order CPHF.  IDoFFX=0 NUNeed=     3.
      3 vectors produced by pass  0 Test12= 6.76D-12 3.33D-08 XBig12= 1.26D+03 2.87D+00.
 AX will form     3 AO Fock derivatives at one time.
      3 vectors produced by pass  1 Test12= 6.76D-12 3.33D-08 XBig12= 2.92D+00 3.53D-01.
      3 vectors produced by pass  2 Test12= 6.76D-12 3.33D-08 XBig12= 1.96D-02 4.43D-02.
      3 vectors produced by pass  3 Test12= 6.76D-12 3.33D-08 XBig12= 2.38D-04 3.88D-03.
      3 vectors produced by pass  4 Test12= 6.76D-12 3.33D-08 XBig12= 1.51D-06 1.92D-04.
      3 vectors produced by pass  5 Test12= 6.76D-12 3.33D-08 XBig12= 4.18D-09 7.17D-06.
      3 vectors produced by pass  6 Test12= 6.76D-12 3.33D-08 XBig12= 2.01D-11 8.72D-07.
      1 vectors produced by pass  7 Test12= 6.76D-12 3.33D-08 XBig12= 1.39D-13 7.84D-08.
 InvSVY:  IOpt=1 It=  1 EMax= 2.84D-14
 Solved reduced A of dimension    22 with     3 vectors.
 Calculating GIAO nuclear magnetic shielding tensors.
 SCF GIAO Magnetic shielding tensor (ppm):
      1  C    Isotropic =   152.6637   Anisotropy =    50.6087
   XX=   157.0069   YX=    -1.1641   ZX=    28.7440
   XY=    -6.0969   YY=   144.3277   ZY=    -6.5497
   XZ=    28.5905   YZ=    -3.6315   ZZ=   156.6564
   Eigenvalues:   128.0929   143.4953   186.4028
      2  H    Isotropic =    30.4376   Anisotropy =     9.2536
   XX=    34.1534   YX=    -3.6764   ZX=    -0.2419
   XY=    -4.6155   YY=    29.5893   ZY=     0.9049
   XZ=     1.0104   YZ=    -0.2289   ZZ=    27.5702
   Eigenvalues:    26.8216    27.8847    36.6067
      3  H    Isotropic =    30.5113   Anisotropy =     6.8440
   XX=    33.2130   YX=     2.7878   ZX=     0.9465
   XY=     1.9620   YY=    30.2886   ZY=     0.9614
   XZ=     1.9160   YZ=     1.8424   ZZ=    28.0322
   Eigenvalues:    27.3422    29.1177    35.0739
      4  H    Isotropic =    29.4298   Anisotropy =     5.6651
   XX=    30.3758   YX=    -2.6324   ZX=     1.6652
   XY=    -0.9623   YY=    25.7214   ZY=    -1.9055
   XZ=    -0.4803   YZ=    -2.0956   ZZ=    32.1922
   Eigenvalues:    24.7087    30.3742    33.2066
      5  C    Isotropic =    91.8287   Anisotropy =    74.6611
   XX=    95.5513   YX=   -34.1075   ZX=   -17.0786
   XY=   -30.3773   YY=   108.2714   ZY=    15.8857
   XZ=   -16.8137   YZ=    12.7404   ZZ=    71.6634
   Eigenvalues:    62.5891    71.2942   141.6027
      6  C    Isotropic =   147.9054   Anisotropy =    57.9169
   XX=   131.6856   YX=     2.0009   ZX=   -21.6038
   XY=     3.5453   YY=   136.5102   ZY=    -8.4339
   XZ=   -21.9110   YZ=   -11.0742   ZZ=   175.5204
   Eigenvalues:   122.6117   134.5878   186.5166
      7  H    Isotropic =    30.1066   Anisotropy =     6.4491
   XX=    28.9484   YX=    -0.9787   ZX=     0.0350
   XY=    -2.2325   YY=    28.3457   ZY=    -1.9386
   XZ=     2.0407   YZ=    -2.5929   ZZ=    33.0256
   Eigenvalues:    26.7709    29.1428    34.4060
      8  H    Isotropic =    30.1905   Anisotropy =     7.7038
   XX=    31.5308   YX=     2.8349   ZX=    -1.6974
   XY=     2.8662   YY=    28.8782   ZY=    -1.1571
   XZ=    -3.3060   YZ=    -2.8674   ZZ=    30.1624
   Eigenvalues:    26.9823    28.2627    35.3264
      9  H    Isotropic =    30.6047   Anisotropy =     8.2021
   XX=    29.1246   YX=    -1.6543   ZX=    -3.6425
   XY=    -1.2252   YY=    30.4096   ZY=     2.2129
   XZ=    -3.0861   YZ=     3.2071   ZZ=    32.2798
   Eigenvalues:    26.9605    28.7809    36.0727
     10  C    Isotropic =   156.9449   Anisotropy =    40.5868
   XX=   164.1157   YX=    21.4890   ZX=    -7.5201
   XY=    18.5038   YY=   163.8929   ZY=     4.9037
   XZ=    -1.9558   YZ=     3.8766   ZZ=   142.8261
   Eigenvalues:   136.9352   149.8967   184.0027
     11  H    Isotropic =    29.6391   Anisotropy =     6.0585
   XX=    27.1913   YX=     2.1232   ZX=    -3.7403
   XY=     0.6364   YY=    31.3726   ZY=    -2.2014
   XZ=    -1.4482   YZ=    -0.9854   ZZ=    30.3535
   Eigenvalues:    25.6984    29.5408    33.6781
     12  H    Isotropic =    30.3131   Anisotropy =     6.5253
   XX=    33.7713   YX=     0.1146   ZX=     2.4665
   XY=     1.2020   YY=    28.9712   ZY=     1.8275
   XZ=     1.7252   YZ=     0.7453   ZZ=    28.1967
   Eigenvalues:    26.9518    29.3242    34.6633
     13  H    Isotropic =    30.5314   Anisotropy =     8.8293
   XX=    27.9051   YX=    -1.0099   ZX=    -1.6052
   XY=    -1.4115   YY=    34.7312   ZY=     3.2587
   XZ=    -1.9007   YZ=     2.7998   ZZ=    28.9579
   Eigenvalues:    26.4769    28.6997    36.4176
     14  O    Isotropic =   107.1908   Anisotropy =    84.0892
   XX=   149.4233   YX=   -22.5181   ZX=     8.9579
   XY=    43.2251   YY=    20.6090   ZY=    -9.6047
   XZ=   -19.8992   YZ=    89.5642   ZZ=   151.5400
   Eigenvalues:     8.4368   149.8853   163.2502
     15  C    Isotropic =    17.9836   Anisotropy =    66.7491
   XX=    23.1343   YX=    38.8033   ZX=    42.5838
   XY=    30.6712   YY=    27.8623   ZY=   -38.2947
   XZ=    47.5055   YZ=   -52.4601   ZZ=     2.9543
   Eigenvalues:   -67.3902    58.8581    62.4830
     16  O    Isotropic =    26.1374   Anisotropy =   408.1257
   XX=   185.0420   YX=    72.6999   ZX=   162.0714
   XY=   109.1686   YY=   -69.9864   ZY=    74.6716
   XZ=   145.1474   YZ=    64.7627   ZZ=   -36.6435
   Eigenvalues:  -130.3773   -89.4317   298.2212
     17  N    Isotropic =   131.5970   Anisotropy =   126.9451
   XX=   147.3463   YX=   -29.0371   ZX=    -2.2852
   XY=   -52.6526   YY=   176.1576   ZY=    66.3747
   XZ=     8.1484   YZ=    32.9194   ZZ=    71.2872
   Eigenvalues:    47.9842   130.5798   216.2271
     18  H    Isotropic =    25.6565   Anisotropy =     7.8031
   XX=    23.5923   YX=    -3.4037   ZX=    -3.4243
   XY=    -5.6374   YY=    27.9053   ZY=    -1.7660
   XZ=    -2.8343   YZ=    -0.6185   ZZ=    25.4720
   Eigenvalues:    19.0519    27.0591    30.8586
     19  C    Isotropic =   115.7887   Anisotropy =    26.3573
   XX=   120.2856   YX=     5.3740   ZX=   -14.6192
   XY=     8.8678   YY=   103.1599   ZY=    -1.5610
   XZ=    -7.5379   YZ=    11.2768   ZZ=   123.9205
   Eigenvalues:    97.6014   116.4044   133.3602
     20  C    Isotropic =    13.9786   Anisotropy =   108.3022
   XX=   -25.6345   YX=   -59.9590   ZX=    -3.7364
   XY=   -57.9065   YY=    49.0381   ZY=   -25.0144
   XZ=   -29.3851   YZ=   -32.2646   ZZ=    18.5322
   Eigenvalues:   -67.5898    23.3456    86.1801
     21  N    Isotropic =   117.1375   Anisotropy =    89.3526
   XX=    77.5466   YX=   -15.1971   ZX=    26.7547
   XY=   -20.4536   YY=   166.0730   ZY=     0.6310
   XZ=   137.6696   YZ=    33.6519   ZZ=   107.7930
   Eigenvalues:     5.2933   169.4133   176.7059
     22  H    Isotropic =    26.1014   Anisotropy =    10.8882
   XX=    33.1356   YX=     2.3171   ZX=    -1.7446
   XY=     0.6059   YY=    21.8330   ZY=     2.6093
   XZ=     2.3031   YZ=     2.5865   ZZ=    23.3354
   Eigenvalues:    19.8036    25.1403    33.3602
     23  O    Isotropic =   -48.5881   Anisotropy =   589.9661
   XX=   -69.1802   YX=  -200.6392   ZX=   112.0099
   XY=  -232.3575   YY=   196.6800   ZY=   -31.6864
   XZ=   132.7704   YZ=  -124.8567   ZZ=  -273.2641
   Eigenvalues:  -331.7723  -158.7146   344.7226
     24  H    Isotropic =    27.4739   Anisotropy =     4.6429
   XX=    27.8761   YX=    -2.6169   ZX=     0.9958
   XY=    -3.5578   YY=    25.4343   ZY=    -0.2723
   XZ=     0.7245   YZ=    -0.5033   ZZ=    29.1112
   Eigenvalues:    23.3305    28.5220    30.5691
     25  C    Isotropic =   142.5352   Anisotropy =    19.0052
   XX=   145.3543   YX=    -9.1973   ZX=     2.0251
   XY=   -13.3828   YY=   140.1934   ZY=    -0.0495
   XZ=     7.0888   YZ=     0.9275   ZZ=   142.0581
   Eigenvalues:   130.2965   142.1039   155.2054
     26  H    Isotropic =    28.5288   Anisotropy =     7.9106
   XX=    31.7451   YX=     2.6754   ZX=     1.0520
   XY=     3.2644   YY=    27.3403   ZY=     0.3355
   XZ=     3.0829   YZ=     0.4373   ZZ=    26.5009
   Eigenvalues:    25.3266    26.4573    33.8025
     27  H    Isotropic =    28.7596   Anisotropy =     5.9290
   XX=    27.7252   YX=    -0.6219   ZX=    -0.3465
   XY=     0.2038   YY=    27.0946   ZY=     3.0370
   XZ=    -0.3387   YZ=     2.1869   ZZ=    31.4589
   Eigenvalues:    25.8721    27.6944    32.7123
     28  C    Isotropic =    36.8973   Anisotropy =   194.9129
   XX=    -2.5466   YX=    50.8664   ZX=   -17.9183
   XY=    55.9333   YY=   134.9998   ZY=    59.4333
   XZ=   -17.0671   YZ=    57.4792   ZZ=   -21.7614
   Eigenvalues:   -63.0218     6.8744   166.8392
     29  C    Isotropic =    48.4118   Anisotropy =   169.6364
   XX=   -35.1747   YX=    44.6951   ZX=    42.3340
   XY=    42.3883   YY=   144.8854   ZY=    19.0282
   XZ=    34.9886   YZ=    21.3351   ZZ=    35.5248
   Eigenvalues:   -57.4861    41.2188   161.5028
     30  C    Isotropic =    49.3726   Anisotropy =   162.0607
   XX=    37.2912   YX=    14.5620   ZX=    12.6346
   XY=    12.6138   YY=   149.3037   ZY=     9.2298
   XZ=    49.6245   YZ=    53.9968   ZZ=   -38.4770
   Eigenvalues:   -52.8492    43.5540   157.4131
     31  H    Isotropic =    23.8836   Anisotropy =     5.8988
   XX=    27.3991   YX=    -0.7427   ZX=     0.1438
   XY=     0.2648   YY=    22.6357   ZY=    -3.2212
   XZ=     2.7459   YZ=    -0.0312   ZZ=    21.6158
   Eigenvalues:    20.2681    23.5665    27.8161
     32  H    Isotropic =    24.4775   Anisotropy =     6.6883
   XX=    23.9060   YX=    -0.5587   ZX=     1.3196
   XY=    -0.6336   YY=    23.5027   ZY=    -3.8483
   XZ=     1.8581   YZ=    -2.9664   ZZ=    26.0240
   Eigenvalues:    21.0595    23.4367    28.9364
     33  C    Isotropic =    38.1131   Anisotropy =   176.4160
   XX=    27.3161   YX=    14.0259   ZX=    38.3361
   XY=    34.2064   YY=   135.8995   ZY=    60.6926
   XZ=    28.8674   YZ=    36.1369   ZZ=   -48.8764
   Eigenvalues:   -68.6862    27.3016   155.7237
     34  H    Isotropic =    25.0557   Anisotropy =     7.1988
   XX=    29.2579   YX=    -0.3971   ZX=     1.4414
   XY=    -1.2944   YY=    24.4903   ZY=     0.8528
   XZ=     2.8529   YZ=     1.7850   ZZ=    21.4188
   Eigenvalues:    20.3337    24.9785    29.8549
     35  C    Isotropic =    42.4000   Anisotropy =   179.4841
   XX=   -44.8391   YX=    20.5938   ZX=     9.3476
   XY=    17.2549   YY=   155.4923   ZY=    23.8595
   XZ=    -2.2643   YZ=    28.5178   ZZ=    16.5467
   Eigenvalues:   -46.6308    11.7747   162.0560
     36  H    Isotropic =    24.1853   Anisotropy =     5.1804
   XX=    21.4755   YX=     2.7541   ZX=    -0.1613
   XY=     0.3987   YY=    23.5518   ZY=    -2.5187
   XZ=    -0.3916   YZ=     1.4589   ZZ=    27.5285
   Eigenvalues:    20.6261    24.2908    27.6389
     37  C    Isotropic =     5.0993   Anisotropy =   140.2329
   XX=   -30.0339   YX=    18.1836   ZX=   -37.9215
   XY=    24.0766   YY=    88.1766   ZY=    41.3262
   XZ=   -41.8778   YZ=    31.6377   ZZ=   -42.8449
   Eigenvalues:   -86.7197     3.4297    98.5878
     38  O    Isotropic =   183.8014   Anisotropy =   129.6361
   XX=   118.1170   YX=   -24.0498   ZX=    14.8389
   XY=     7.4727   YY=   248.4507   ZY=   -32.1685
   XZ=    26.2118   YZ=   -49.5398   ZZ=   184.8366
   Eigenvalues:   112.2215   168.9573   270.2255
     39  C    Isotropic =    20.9877   Anisotropy =   143.4437
   XX=    -6.8556   YX=   -46.8574   ZX=     8.8937
   XY=   -65.0668   YY=   -22.8370   ZY=   -55.3181
   XZ=    10.3018   YZ=   -38.9111   ZZ=    92.6557
   Eigenvalues:   -76.8372    23.1835   116.6168
     40  C    Isotropic =    56.3417   Anisotropy =   165.9258
   XX=    46.3027   YX=    -4.8813   ZX=    50.1925
   XY=    21.4501   YY=    18.1309   ZY=   -44.5080
   XZ=    73.7438   YZ=   -98.5823   ZZ=   104.5915
   Eigenvalues:   -41.3309    43.3971   166.9589
     41  C    Isotropic =    49.2696   Anisotropy =   185.8264
   XX=   -14.3927   YX=   -12.1124   ZX=    92.7309
   XY=    -6.1854   YY=    44.7582   ZY=   -27.3370
   XZ=    88.9090   YZ=   -41.2865   ZZ=   117.4432
   Eigenvalues:   -61.2443    35.8991   173.1538
     42  H    Isotropic =    23.7560   Anisotropy =     4.8056
   XX=    23.0160   YX=     0.4433   ZX=     1.6825
   XY=     2.4470   YY=    26.2868   ZY=     0.3970
   XZ=     0.4841   YZ=     0.4506   ZZ=    21.9652
   Eigenvalues:    21.2468    23.0614    26.9598
     43  H    Isotropic =    24.1341   Anisotropy =     4.1465
   XX=    26.4847   YX=    -0.0367   ZX=    -1.2000
   XY=     1.1445   YY=    24.6634   ZY=    -0.6332
   XZ=     0.2683   YZ=    -3.6503   ZZ=    21.2543
   Eigenvalues:    20.2165    25.2875    26.8985
     44  C    Isotropic =    45.2154   Anisotropy =   178.5553
   XX=   -44.2633   YX=   -31.8925   ZX=    51.9549
   XY=   -19.1792   YY=    36.9070   ZY=   -37.4715
   XZ=    22.0199   YZ=   -38.9001   ZZ=   143.0025
   Eigenvalues:   -55.1670    26.5609   164.2523
     45  H    Isotropic =    23.8467   Anisotropy =     6.6162
   XX=    20.8301   YX=     0.1007   ZX=     0.7033
   XY=     0.8248   YY=    26.3501   ZY=     4.0501
   XZ=    -1.2399   YZ=     1.3884   ZZ=    24.3599
   Eigenvalues:    20.6904    22.5922    28.2575
     46  C    Isotropic =    41.6471   Anisotropy =   196.2527
   XX=    16.0558   YX=     8.1635   ZX=    78.9739
   XY=    13.3477   YY=   -13.2106   ZY=   -63.7556
   XZ=    67.7541   YZ=   -55.0582   ZZ=   122.0960
   Eigenvalues:   -59.2234    11.6824   172.4822
     47  H    Isotropic =    23.2049   Anisotropy =     5.3340
   XX=    22.8275   YX=     2.3111   ZX=     0.7553
   XY=     3.0697   YY=    24.4110   ZY=    -1.3919
   XZ=    -0.1417   YZ=    -2.0097   ZZ=    22.3763
   Eigenvalues:    20.0547    22.7991    26.7609
     48  C    Isotropic =    41.2207   Anisotropy =   169.0639
   XX=    33.4529   YX=   -23.3394   ZX=    51.0500
   XY=   -32.5469   YY=   -17.2075   ZY=   -25.3143
   XZ=    77.8311   YZ=   -33.8631   ZZ=   107.4167
   Eigenvalues:   -29.6051    -0.6628   153.9300
     49  C    Isotropic =   -37.4469   Anisotropy =   181.9368
   XX=   -74.7455   YX=     1.2449   ZX=   -12.4328
   XY=     0.4341   YY=  -112.3635   ZY=    21.8981
   XZ=   -55.1708   YZ=    16.7860   ZZ=    74.7681
   Eigenvalues:  -114.8751   -81.3100    83.8443
     50  O    Isotropic =  -290.1509   Anisotropy =   895.2658
   XX=  -785.8493   YX=    -5.2352   ZX=  -114.3107
   XY=   -41.8329   YY=  -354.5064   ZY=    74.0340
   XZ=  -248.0750   YZ=    51.6225   ZZ=   269.9030
   Eigenvalues:  -816.4426  -360.7031   306.6930
     51  C    Isotropic =   128.3730   Anisotropy =    39.1747
   XX=   114.0342   YX=   -19.1506   ZX=     8.6894
   XY=   -10.2499   YY=   146.8888   ZY=    -3.6131
   XZ=    18.4563   YZ=    -1.7736   ZZ=   124.1959
   Eigenvalues:   101.9370   128.6925   154.4894
     52  H    Isotropic =    28.5009   Anisotropy =     7.2443
   XX=    27.9186   YX=     0.9907   ZX=     1.3002
   XY=     4.1756   YY=    29.7721   ZY=     3.1012
   XZ=     1.4631   YZ=     2.5115   ZZ=    27.8121
   Eigenvalues:    25.6633    26.5090    33.3304
     53  H    Isotropic =    26.2430   Anisotropy =     3.0067
   XX=    25.8384   YX=     2.1524   ZX=    -0.2180
   XY=     0.6496   YY=    26.1114   ZY=     2.6766
   XZ=    -2.9731   YZ=     0.6540   ZZ=    26.7792
   Eigenvalues:    23.1189    27.3627    28.2475
     54  N    Isotropic =   133.1810   Anisotropy =    80.3452
   XX=   159.2136   YX=     5.2704   ZX=    78.4045
   XY=    10.9033   YY=   178.2742   ZY=    13.0556
   XZ=     8.6639   YZ=    -1.7315   ZZ=    62.0552
   Eigenvalues:    45.3592   167.4393   186.7444
     55  H    Isotropic =    25.7130   Anisotropy =    10.7967
   XX=    29.8653   YX=     6.4776   ZX=    -1.0646
   XY=     4.2812   YY=    20.2124   ZY=     0.8225
   XZ=    -3.5041   YZ=    -0.0246   ZZ=    27.0612
   Eigenvalues:    17.6288    26.5993    32.9108
     56  C    Isotropic =    12.5562   Anisotropy =   117.6503
   XX=    -0.8099   YX=   -42.8399   ZX=   -40.9055
   XY=   -45.7568   YY=    68.0405   ZY=   -28.3520
   XZ=   -30.0966   YZ=   -31.8349   ZZ=   -29.5621
   Eigenvalues:   -71.7158    18.3945    90.9897
     57  O    Isotropic =   -49.8995   Anisotropy =   638.0817
   XX=  -231.5243   YX=  -233.8128   ZX=   110.2172
   XY=  -248.9386   YY=   267.7410   ZY=   -32.2474
   XZ=   110.4213   YZ=   -39.6319   ZZ=  -185.9152
   Eigenvalues:  -373.0461  -152.1407   375.4883
     58  C    Isotropic =   117.5627   Anisotropy =     9.7024
   XX=   122.8474   YX=     0.9458   ZX=    -9.0902
   XY=     0.8934   YY=   114.5414   ZY=     5.3538
   XZ=     3.4799   YZ=     7.5567   ZZ=   115.2993
   Eigenvalues:   107.9965   120.6606   124.0310
     59  H    Isotropic =    26.7681   Anisotropy =     6.1217
   XX=    28.0391   YX=     1.9153   ZX=     0.2854
   XY=     2.1448   YY=    28.6325   ZY=    -4.0396
   XZ=     1.0925   YZ=    -1.5543   ZZ=    23.6326
   Eigenvalues:    22.0093    27.4457    30.8492
     60  C    Isotropic =    29.8892   Anisotropy =   194.9782
   XX=    46.0739   YX=    80.8261   ZX=    72.4990
   XY=    88.3135   YY=    33.7094   ZY=    19.1828
   XZ=    86.2120   YZ=    17.7063   ZZ=     9.8844
   Eigenvalues:   -73.2576     3.0506   159.8747
     61  C    Isotropic =    38.4605   Anisotropy =   172.8648
   XX=    89.6075   YX=    78.2155   ZX=    35.4124
   XY=    67.2117   YY=   -24.1588   ZY=    54.5654
   XZ=    27.8128   YZ=    57.1203   ZZ=    49.9327
   Eigenvalues:   -71.8746    33.5523   153.7037
     62  H    Isotropic =    23.8938   Anisotropy =     7.4364
   XX=    24.8361   YX=     0.7584   ZX=    -3.1498
   XY=     0.0593   YY=    20.2875   ZY=    -0.9473
   XZ=    -2.7367   YZ=    -0.6072   ZZ=    26.5579
   Eigenvalues:    20.1918    22.6382    28.8514
     63  C    Isotropic =    48.5575   Anisotropy =   190.4265
   XX=    89.1617   YX=    44.0026   ZX=    90.2280
   XY=    43.9372   YY=    61.8234   ZY=    69.9136
   XZ=    61.5156   YZ=    56.9873   ZZ=    -5.3127
   Eigenvalues:   -59.5472    29.7112   175.5085
     64  H    Isotropic =    24.3157   Anisotropy =     3.6108
   XX=    24.0627   YX=    -2.5484   ZX=    -0.9643
   XY=    -2.3562   YY=    24.3648   ZY=    -0.9568
   XZ=    -1.0893   YZ=    -0.0967   ZZ=    24.5196
   Eigenvalues:    21.3647    24.8595    26.7229
     65  C    Isotropic =    47.3887   Anisotropy =   188.7840
   XX=    26.8571   YX=    83.2341   ZX=    78.1408
   XY=    89.9236   YY=    69.1802   ZY=    22.9492
   XZ=    81.0218   YZ=    16.0684   ZZ=    46.1288
   Eigenvalues:   -68.2542    37.1756   173.2447
     66  H    Isotropic =    23.7157   Anisotropy =     4.2835
   XX=    21.7173   YX=    -1.3557   ZX=    -1.0339
   XY=     0.0635   YY=    23.6585   ZY=    -1.6104
   XZ=    -0.0181   YZ=    -1.4284   ZZ=    25.7713
   Eigenvalues:    21.2891    23.2867    26.5714
     67  C    Isotropic =    47.6764   Anisotropy =   194.5754
   XX=    77.6342   YX=    98.8410   ZX=    26.1131
   XY=    85.4548   YY=    29.6982   ZY=    61.4217
   XZ=    27.1290   YZ=    72.9468   ZZ=    35.6966
   Eigenvalues:   -59.3232    24.9590   177.3933
     68  H    Isotropic =    24.3455   Anisotropy =     7.8494
   XX=    24.0842   YX=    -0.8052   ZX=    -2.3861
   XY=     0.4129   YY=    21.6532   ZY=    -0.1921
   XZ=    -4.6476   YZ=     0.8867   ZZ=    27.2991
   Eigenvalues:    21.6306    21.8275    29.5784
     69  C    Isotropic =    37.7797   Anisotropy =   197.4223
   XX=    81.9799   YX=    56.3268   ZX=    70.1367
   XY=    58.3419   YY=    62.4042   ZY=    51.3404
   XZ=    64.1331   YZ=    63.8672   ZZ=   -31.0451
   Eigenvalues:   -70.0886    14.0330   169.3945
     70  H    Isotropic =    26.1216   Anisotropy =     6.8296
   XX=    24.5150   YX=    -2.7878   ZX=     4.0537
   XY=     1.3162   YY=    26.9928   ZY=    -3.2799
   XZ=     2.8912   YZ=    -1.0616   ZZ=    26.8571
   Eigenvalues:    21.9205    25.7697    30.6747
     71  C    Isotropic =   138.2023   Anisotropy =    60.7910
   XX=   139.1053   YX=     7.5709   ZX=    22.8675
   XY=     3.9520   YY=   122.8727   ZY=    15.7121
   XZ=    31.4110   YZ=    17.0576   ZZ=   152.6288
   Eigenvalues:   112.6175   123.2597   178.7296
     72  H    Isotropic =    29.4130   Anisotropy =     9.8300
   XX=    35.2964   YX=     2.4987   ZX=     1.0218
   XY=     1.6213   YY=    26.9670   ZY=     0.6857
   XZ=     1.5053   YZ=     0.5470   ZZ=    25.9755
   Eigenvalues:    25.6699    26.6028    35.9663
     73  H    Isotropic =    29.3925   Anisotropy =     7.6952
   XX=    27.6722   YX=     2.5354   ZX=     1.2311
   XY=     1.7190   YY=    33.3115   ZY=     1.5897
   XZ=     0.0430   YZ=     2.0160   ZZ=    27.1938
   Eigenvalues:    26.6916    26.9633    34.5226
     74  H    Isotropic =    28.3537   Anisotropy =     3.2260
   XX=    27.1300   YX=     1.7463   ZX=     1.6593
   XY=     2.6391   YY=    28.0771   ZY=     0.3551
   XZ=    -1.3139   YZ=    -2.1835   ZZ=    29.8540
   Eigenvalues:    25.2494    29.3073    30.5044
     75  S    Isotropic =   168.9211   Anisotropy =   430.4906
   XX=   387.2096   YX=   -78.4457   ZX=  -136.1241
   XY=   -20.7683   YY=    44.5630   ZY=     7.0015
   XZ=  -170.9480   YZ=     9.6225   ZZ=    74.9907
   Eigenvalues:     8.1597    42.6888   455.9149
     76  C    Isotropic =   137.9926   Anisotropy =    65.8843
   XX=   119.9615   YX=    -9.7118   ZX=     0.2429
   XY=    -8.8109   YY=   180.5234   ZY=     2.5695
   XZ=     4.0885   YZ=    -0.4761   ZZ=   113.4930
   Eigenvalues:   112.6028   119.4596   181.9155
     77  H    Isotropic =    29.6603   Anisotropy =     2.3526
   XX=    29.5259   YX=     0.7573   ZX=     1.3830
   XY=     2.4590   YY=    28.8820   ZY=    -1.8316
   XZ=    -0.8669   YZ=    -0.0848   ZZ=    30.5730
   Eigenvalues:    27.3095    30.4427    31.2287
     78  H    Isotropic =    30.4453   Anisotropy =    13.6329
   XX=    33.4841   YX=     2.6849   ZX=     3.5181
   XY=     8.9252   YY=    28.7482   ZY=     3.7399
   XZ=     3.9715   YZ=     2.0824   ZZ=    29.1036
   Eigenvalues:    24.8042    26.9978    39.5339
     79  H    Isotropic =    29.9609   Anisotropy =     7.7761
   XX=    32.8888   YX=    -3.0230   ZX=    -1.7746
   XY=    -2.5341   YY=    29.7361   ZY=     2.3583
   XZ=    -1.2502   YZ=     1.3077   ZZ=    27.2578
   Eigenvalues:    26.2841    28.4536    35.1450
     80  O    Isotropic =   283.3033   Anisotropy =   230.2114
   XX=   179.1733   YX=    61.0142   ZX=    41.0682
   XY=   135.1332   YY=   377.1822   ZY=    29.5234
   XZ=    23.4645   YZ=    57.2238   ZZ=   293.5545
   Eigenvalues:   137.6040   275.5284   436.7776
 End of Minotr F.D. properties file   721 does not exist.
 End of Minotr F.D. properties file   722 does not exist.
 End of Minotr F.D. properties file   788 does not exist.
 Leave Link 1002 at Tue Aug 10 21:35:12 2021, MaxMem=  6442450944 cpu:           48309.4 elap:            4878.7
 (Enter /software/sse/easybuild/prefix/software/Gaussian/16.C.01-avx2-nsc1/g16/l601.exe)
 Copying SCF densities to generalized density rwf, IOpCl= 0 IROHF=0.

 **********************************************************************

            Population analysis using the SCF Density.

 **********************************************************************

 Orbital symmetries:
       Occupied  (A) (A) (A) (A) (A) (A) (A) (A) (A) (A) (A) (A)
                 (A) (A) (A) (A) (A) (A) (A) (A) (A) (A) (A) (A)
                 (A) (A) (A) (A) (A) (A) (A) (A) (A) (A) (A) (A)
                 (A) (A) (A) (A) (A) (A) (A) (A) (A) (A) (A) (A)
                 (A) (A) (A) (A) (A) (A) (A) (A) (A) (A) (A) (A)
                 (A) (A) (A) (A) (A) (A) (A) (A) (A) (A) (A) (A)
                 (A) (A) (A) (A) (A) (A) (A) (A) (A) (A) (A) (A)
                 (A) (A) (A) (A) (A) (A) (A) (A) (A) (A) (A) (A)
                 (A) (A) (A) (A) (A) (A) (A) (A) (A) (A) (A) (A)
                 (A) (A) (A) (A) (A) (A) (A) (A) (A) (A) (A) (A)
                 (A) (A) (A) (A) (A) (A) (A) (A) (A) (A) (A) (A)
                 (A) (A) (A) (A) (A) (A) (A) (A) (A) (A) (A) (A)
                 (A) (A) (A) (A) (A) (A) (A) (A) (A) (A) (A) (A)
                 (A) (A) (A) (A) (A)
       Virtual   (A) (A) (A) (A) (A) (A) (A) (A) (A) (A) (A) (A)
                 (A) (A) (A) (A) (A) (A) (A) (A) (A) (A) (A) (A)
                 (A) (A) (A) (A) (A) (A) (A) (A) (A) (A) (A) (A)
                 (A) (A) (A) (A) (A) (A) (A) (A) (A) (A) (A) (A)
                 (A) (A) (A) (A) (A) (A) (A) (A) (A) (A) (A) (A)
                 (A) (A) (A) (A) (A) (A) (A) (A) (A) (A) (A) (A)
                 (A) (A) (A) (A) (A) (A) (A) (A) (A) (A) (A) (A)
                 (A) (A) (A) (A) (A) (A) (A) (A) (A) (A) (A) (A)
                 (A) (A) (A) (A) (A) (A) (A) (A) (A) (A) (A) (A)
                 (A) (A) (A) (A) (A) (A) (A) (A) (A) (A) (A) (A)
                 (A) (A) (A) (A) (A) (A) (A) (A) (A) (A) (A) (A)
                 (A) (A) (A) (A) (A) (A) (A) (A) (A) (A) (A) (A)
                 (A) (A) (A) (A) (A) (A) (A) (A) (A) (A) (A) (A)
                 (A) (A) (A) (A) (A) (A) (A) (A) (A) (A) (A) (A)
                 (A) (A) (A) (A) (A) (A) (A) (A) (A) (A) (A) (A)
                 (A) (A) (A) (A) (A) (A) (A) (A) (A) (A) (A) (A)
                 (A) (A) (A) (A) (A) (A) (A) (A) (A) (A) (A) (A)
                 (A) (A) (A) (A) (A) (A) (A) (A) (A) (A) (A) (A)
                 (A) (A) (A) (A) (A) (A) (A) (A) (A) (A) (A) (A)
                 (A) (A) (A) (A) (A) (A) (A) (A) (A) (A) (A) (A)
                 (A) (A) (A) (A) (A) (A) (A) (A) (A) (A) (A) (A)
                 (A) (A) (A) (A) (A) (A) (A) (A) (A) (A) (A) (A)
                 (A) (A) (A) (A) (A) (A) (A) (A) (A) (A) (A) (A)
                 (A) (A) (A) (A) (A) (A) (A) (A) (A) (A) (A) (A)
                 (A) (A) (A) (A) (A) (A) (A) (A) (A) (A) (A) (A)
                 (A) (A) (A) (A) (A) (A) (A) (A) (A) (A) (A) (A)
                 (A) (A) (A) (A) (A) (A) (A) (A) (A) (A) (A) (A)
                 (A) (A) (A) (A) (A) (A) (A) (A) (A) (A) (A) (A)
                 (A) (A) (A) (A) (A) (A) (A) (A) (A) (A) (A) (A)
                 (A) (A) (A) (A) (A) (A) (A) (A) (A) (A) (A) (A)
                 (A) (A) (A) (A) (A) (A) (A) (A) (A) (A) (A) (A)
                 (A) (A) (A) (A) (A) (A) (A) (A) (A) (A) (A) (A)
                 (A) (A) (A) (A) (A) (A) (A) (A) (A) (A) (A) (A)
                 (A) (A) (A) (A) (A) (A) (A) (A) (A) (A) (A) (A)
                 (A) (A) (A) (A) (A) (A) (A) (A) (A) (A) (A) (A)
                 (A) (A) (A) (A) (A) (A) (A) (A) (A) (A) (A) (A)
                 (A) (A) (A) (A) (A) (A) (A) (A) (A) (A) (A) (A)
                 (A) (A) (A) (A) (A) (A) (A) (A) (A) (A) (A) (A)
                 (A) (A) (A) (A) (A) (A) (A) (A) (A) (A) (A) (A)
                 (A) (A) (A) (A) (A) (A) (A) (A) (A) (A) (A) (A)
                 (A) (A) (A) (A) (A) (A) (A) (A) (A) (A) (A) (A)
                 (A) (A) (A) (A) (A) (A) (A) (A) (A) (A) (A) (A)
                 (A) (A) (A) (A) (A) (A) (A) (A) (A) (A) (A) (A)
                 (A) (A) (A) (A) (A) (A) (A) (A) (A) (A) (A) (A)
                 (A) (A) (A) (A) (A) (A) (A) (A) (A) (A) (A) (A)
                 (A) (A) (A) (A) (A) (A) (A) (A) (A) (A) (A) (A)
                 (A) (A) (A) (A) (A) (A) (A) (A) (A) (A) (A) (A)
                 (A) (A) (A) (A) (A) (A) (A) (A) (A) (A) (A) (A)
                 (A) (A) (A) (A) (A) (A) (A) (A) (A) (A) (A) (A)
                 (A) (A) (A) (A) (A) (A) (A) (A) (A) (A) (A) (A)
                 (A) (A) (A) (A) (A) (A) (A) (A) (A) (A) (A) (A)
                 (A) (A) (A) (A) (A) (A) (A) (A) (A) (A) (A) (A)
                 (A) (A) (A) (A) (A) (A) (A) (A) (A) (A) (A) (A)
                 (A) (A) (A) (A) (A) (A) (A) (A) (A) (A) (A) (A)
                 (A) (A) (A) (A) (A) (A) (A) (A) (A) (A) (A) (A)
                 (A) (A) (A) (A) (A) (A) (A) (A) (A) (A) (A) (A)
                 (A) (A) (A) (A) (A) (A) (A) (A) (A) (A) (A) (A)
                 (A) (A) (A) (A) (A) (A) (A) (A) (A) (A) (A) (A)
                 (A) (A) (A) (A) (A) (A) (A) (A) (A) (A) (A) (A)
                 (A) (A) (A) (A) (A) (A) (A) (A) (A) (A) (A) (A)
                 (A) (A) (A) (A) (A) (A) (A) (A) (A) (A) (A) (A)
                 (A) (A) (A) (A) (A) (A) (A) (A) (A) (A) (A) (A)
                 (A) (A) (A) (A) (A) (A) (A) (A) (A) (A) (A) (A)
                 (A) (A) (A) (A) (A) (A) (A) (A) (A) (A) (A) (A)
                 (A) (A) (A) (A) (A) (A) (A) (A) (A) (A) (A) (A)
                 (A) (A) (A) (A) (A) (A) (A) (A) (A) (A) (A) (A)
                 (A) (A) (A) (A) (A) (A) (A) (A) (A) (A) (A) (A)
                 (A) (A) (A) (A) (A) (A) (A) (A) (A) (A) (A) (A)
                 (A) (A) (A) (A) (A) (A) (A) (A) (A) (A) (A) (A)
                 (A) (A) (A) (A) (A) (A) (A) (A) (A) (A) (A) (A)
                 (A) (A) (A) (A) (A) (A) (A) (A) (A) (A) (A) (A)
                 (A) (A) (A) (A) (A) (A) (A) (A) (A) (A) (A) (A)
                 (A) (A) (A) (A) (A) (A) (A) (A) (A) (A) (A) (A)
                 (A) (A) (A) (A) (A) (A) (A) (A) (A) (A) (A) (A)
                 (A) (A) (A) (A) (A) (A) (A) (A) (A) (A) (A) (A)
                 (A) (A) (A) (A) (A) (A) (A) (A) (A) (A) (A) (A)
                 (A) (A) (A) (A) (A) (A) (A) (A) (A) (A) (A) (A)
                 (A) (A) (A) (A) (A) (A) (A) (A) (A) (A) (A) (A)
                 (A) (A) (A) (A) (A) (A) (A) (A) (A) (A) (A) (A)
                 (A) (A) (A) (A) (A) (A) (A) (A) (A) (A) (A) (A)
                 (A) (A) (A) (A) (A) (A) (A) (A) (A) (A) (A) (A)
                 (A) (A) (A) (A) (A) (A) (A) (A) (A) (A) (A) (A)
                 (A) (A) (A) (A) (A) (A) (A) (A) (A) (A) (A) (A)
                 (A) (A) (A) (A) (A) (A) (A) (A) (A) (A) (A) (A)
                 (A) (A) (A) (A) (A) (A) (A) (A) (A) (A) (A) (A)
                 (A) (A) (A) (A) (A) (A) (A) (A) (A) (A) (A) (A)
                 (A) (A) (A) (A) (A) (A) (A) (A) (A) (A) (A) (A)
                 (A) (A) (A) (A) (A) (A) (A) (A) (A) (A) (A) (A)
                 (A) (A) (A) (A) (A) (A) (A) (A) (A) (A) (A) (A)
                 (A) (A) (A) (A) (A) (A) (A) (A) (A) (A) (A) (A)
                 (A) (A) (A) (A) (A) (A) (A) (A) (A) (A) (A) (A)
                 (A) (A) (A) (A) (A) (A) (A) (A) (A) (A) (A) (A)
                 (A) (A) (A) (A) (A) (A) (A) (A) (A) (A) (A) (A)
                 (A) (A) (A) (A) (A) (A) (A) (A) (A) (A) (A) (A)
                 (A) (A) (A) (A) (A) (A) (A) (A) (A) (A) (A) (A)
                 (A) (A) (A) (A) (A) (A) (A) (A) (A) (A) (A) (A)
                 (A) (A) (A) (A) (A) (A) (A) (A) (A) (A) (A) (A)
                 (A) (A) (A) (A) (A) (A) (A) (A) (A) (A) (A) (A)
                 (A) (A) (A) (A) (A) (A) (A) (A) (A) (A) (A) (A)
                 (A) (A) (A) (A) (A) (A) (A) (A) (A) (A) (A) (A)
                 (A) (A) (A) (A) (A) (A) (A) (A) (A) (A) (A) (A)
                 (A) (A) (A) (A) (A) (A) (A) (A) (A) (A) (A) (A)
                 (A) (A) (A) (A) (A) (A) (A) (A) (A) (A) (A) (A)
                 (A) (A) (A) (A) (A) (A) (A) (A) (A) (A) (A) (A)
                 (A) (A) (A) (A) (A) (A) (A) (A) (A) (A) (A)
 The electronic state is 1-A.
 Alpha  occ. eigenvalues --  -88.95173 -19.16392 -19.16122 -19.13569 -19.11188
 Alpha  occ. eigenvalues --  -19.11087 -19.10737 -19.08947 -14.35747 -14.35398
 Alpha  occ. eigenvalues --  -14.33526 -10.33577 -10.29142 -10.28608 -10.28088
 Alpha  occ. eigenvalues --  -10.25765 -10.25472 -10.24485 -10.23992 -10.23859
 Alpha  occ. eigenvalues --  -10.22931 -10.20353 -10.19981 -10.19962 -10.19938
 Alpha  occ. eigenvalues --  -10.19685 -10.19504 -10.19473 -10.19105 -10.18896
 Alpha  occ. eigenvalues --  -10.18879 -10.18875 -10.18747 -10.18685 -10.18651
 Alpha  occ. eigenvalues --  -10.18552 -10.18375 -10.18299 -10.18205 -10.18089
 Alpha  occ. eigenvalues --  -10.16878 -10.16383 -10.16376  -8.02773  -5.99073
 Alpha  occ. eigenvalues --   -5.98933  -5.98370  -1.11012  -1.10971  -1.07699
 Alpha  occ. eigenvalues --   -1.07264  -1.05586  -1.04014  -1.02087  -0.94489
 Alpha  occ. eigenvalues --   -0.93849  -0.91641  -0.88841  -0.86612  -0.86237
 Alpha  occ. eigenvalues --   -0.81823  -0.80118  -0.79997  -0.79471  -0.77825
 Alpha  occ. eigenvalues --   -0.77436  -0.76157  -0.75557  -0.74974  -0.73948
 Alpha  occ. eigenvalues --   -0.71966  -0.70574  -0.69740  -0.69092  -0.68093
 Alpha  occ. eigenvalues --   -0.64843  -0.64704  -0.63957  -0.62173  -0.61825
 Alpha  occ. eigenvalues --   -0.61436  -0.60937  -0.60584  -0.59711  -0.58009
 Alpha  occ. eigenvalues --   -0.57374  -0.56524  -0.56375  -0.55530  -0.53098
 Alpha  occ. eigenvalues --   -0.52641  -0.51558  -0.50936  -0.50713  -0.50148
 Alpha  occ. eigenvalues --   -0.49372  -0.48954  -0.48337  -0.47903  -0.47679
 Alpha  occ. eigenvalues --   -0.47507  -0.47224  -0.47186  -0.46683  -0.46662
 Alpha  occ. eigenvalues --   -0.46242  -0.46176  -0.46094  -0.45515  -0.45283
 Alpha  occ. eigenvalues --   -0.45063  -0.44788  -0.44459  -0.44163  -0.44006
 Alpha  occ. eigenvalues --   -0.43405  -0.42715  -0.42547  -0.42378  -0.41795
 Alpha  occ. eigenvalues --   -0.41488  -0.41419  -0.41311  -0.40892  -0.40419
 Alpha  occ. eigenvalues --   -0.40015  -0.39643  -0.39176  -0.39071  -0.38883
 Alpha  occ. eigenvalues --   -0.38605  -0.38221  -0.37566  -0.37351  -0.37114
 Alpha  occ. eigenvalues --   -0.37044  -0.36537  -0.36017  -0.35936  -0.35577
 Alpha  occ. eigenvalues --   -0.35144  -0.34997  -0.34561  -0.33992  -0.31301
 Alpha  occ. eigenvalues --   -0.30752  -0.30489  -0.30219  -0.28980  -0.28917
 Alpha  occ. eigenvalues --   -0.28623  -0.27902  -0.27457  -0.27054  -0.26785
 Alpha  occ. eigenvalues --   -0.26414  -0.25763  -0.25482  -0.25143  -0.24792
 Alpha  occ. eigenvalues --   -0.24690
 Alpha virt. eigenvalues --   -0.07221  -0.04738  -0.03637  -0.03176  -0.02947
 Alpha virt. eigenvalues --   -0.02095  -0.01702  -0.01216  -0.00573  -0.00443
 Alpha virt. eigenvalues --   -0.00239   0.00013   0.00460   0.00540   0.00895
 Alpha virt. eigenvalues --    0.01248   0.01361   0.01545   0.01642   0.01920
 Alpha virt. eigenvalues --    0.02132   0.02312   0.02498   0.02613   0.03117
 Alpha virt. eigenvalues --    0.03173   0.03443   0.03640   0.03944   0.04078
 Alpha virt. eigenvalues --    0.04245   0.04356   0.04623   0.04771   0.05150
 Alpha virt. eigenvalues --    0.05537   0.05607   0.05810   0.06024   0.06381
 Alpha virt. eigenvalues --    0.06623   0.06818   0.06879   0.07093   0.07310
 Alpha virt. eigenvalues --    0.07387   0.07606   0.07946   0.08136   0.08459
 Alpha virt. eigenvalues --    0.08490   0.08725   0.08768   0.09069   0.09247
 Alpha virt. eigenvalues --    0.09441   0.09613   0.09731   0.09891   0.09946
 Alpha virt. eigenvalues --    0.10185   0.10306   0.10625   0.10762   0.10891
 Alpha virt. eigenvalues --    0.11100   0.11118   0.11307   0.11359   0.11488
 Alpha virt. eigenvalues --    0.11649   0.11740   0.11856   0.12123   0.12318
[...]
 Alpha virt. eigenvalues --    1.15041   1.15465   1.15650   1.15844   1.15974
 Alpha virt. eigenvalues --    1.16463   1.17043   1.17581   1.17767   1.18156
 Alpha virt. eigenvalues --    1.18383   1.18931   1.18976   1.19437   1.19907
 Alpha virt. eigenvalues --    1.19979   1.20245   1.20853   1.21132   1.21476
 Alpha virt. eigenvalues --    1.21916   1.22189   1.22315   1.22634   1.22822
 Alpha virt. eigenvalues --    1.23212   1.23636   1.23861   1.24393   1.24780
 Alpha virt. eigenvalues --    1.25318   1.25483   1.25997   1.26146   1.26561
 Alpha virt. eigenvalues --    1.27065   1.27069   1.27341   1.27596   1.28109
 Alpha virt. eigenvalues --    1.28530   1.28863   1.28946   1.29265   1.29826
 Alpha virt. eigenvalues --    1.29935   1.30297   1.30701   1.31253   1.31562
 Alpha virt. eigenvalues --    1.31633   1.32330   1.32431   1.32929   1.33043
 Alpha virt. eigenvalues --    1.33441   1.33815   1.34251   1.34415   1.34754
 Alpha virt. eigenvalues --    1.35006   1.35224   1.35780   1.35995   1.36303
 Alpha virt. eigenvalues --    1.36642   1.37251   1.37558   1.37581   1.37951
 Alpha virt. eigenvalues --    1.38258   1.38402   1.38794   1.39188   1.39747
 Alpha virt. eigenvalues --    1.40020   1.40288   1.40464   1.40744   1.41287
 Alpha virt. eigenvalues --    1.41813   1.42066   1.42425   1.42765   1.43098
 Alpha virt. eigenvalues --    1.43178   1.43852   1.44148   1.44504   1.44727
 Alpha virt. eigenvalues --    1.45345   1.45533   1.46040   1.46851   1.47000
 Alpha virt. eigenvalues --    1.47208   1.47795   1.48011   1.48374   1.48788
 Alpha virt. eigenvalues --    1.48964   1.49532   1.49955   1.50324   1.50620
 Alpha virt. eigenvalues --    1.50881   1.51296   1.51615   1.52249   1.52562
 Alpha virt. eigenvalues --    1.53028   1.53740   1.53831   1.54291   1.54544
 Alpha virt. eigenvalues --    1.55326   1.55649   1.56097   1.56970   1.57176
 Alpha virt. eigenvalues --    1.57463   1.58281   1.58444   1.58927   1.59517
 Alpha virt. eigenvalues --    1.60054   1.60096   1.60577   1.60819   1.61476
 Alpha virt. eigenvalues --    1.61940   1.62218   1.62686   1.63296   1.64464
 Alpha virt. eigenvalues --    1.64914   1.65483   1.65755   1.66079   1.66554
 Alpha virt. eigenvalues --    1.67091   1.67214   1.67877   1.68039   1.68393
 Alpha virt. eigenvalues --    1.69383   1.69743   1.70004   1.70556   1.71002
 Alpha virt. eigenvalues --    1.71829   1.72209   1.72331   1.73467   1.73937
 Alpha virt. eigenvalues --    1.74372   1.74805   1.75338   1.76511   1.76700
 Alpha virt. eigenvalues --    1.77232   1.78013   1.78607   1.79105   1.79303
 Alpha virt. eigenvalues --    1.80063   1.80585   1.80849   1.81914   1.82238
 Alpha virt. eigenvalues --    1.82685   1.83140   1.83351   1.83740   1.83991
 Alpha virt. eigenvalues --    1.84575   1.84834   1.85369   1.85886   1.86105
 Alpha virt. eigenvalues --    1.86679   1.87203   1.87612   1.87749   1.88238
 Alpha virt. eigenvalues --    1.88517   1.89633   1.90054   1.90384   1.90929
 Alpha virt. eigenvalues --    1.91543   1.92202   1.92590   1.93133   1.93364
 Alpha virt. eigenvalues --    1.93704   1.94404   1.95238   1.95499   1.96053
 Alpha virt. eigenvalues --    1.96771   1.96918   1.97543   1.97612   1.97946
 Alpha virt. eigenvalues --    1.99021   1.99511   2.00083   2.00691   2.01161
 Alpha virt. eigenvalues --    2.01551   2.01887   2.02812   2.03117   2.03621
 Alpha virt. eigenvalues --    2.04461   2.05569   2.06995   2.07037   2.08490
 Alpha virt. eigenvalues --    2.08571   2.09171   2.09735   2.10604   2.11529
 Alpha virt. eigenvalues --    2.11843   2.12860   2.13546   2.14171   2.15236
 Alpha virt. eigenvalues --    2.17134   2.17762   2.18400   2.19531   2.20613
 Alpha virt. eigenvalues --    2.20747   2.20921   2.21798   2.22357   2.22703
 Alpha virt. eigenvalues --    2.23618   2.24296   2.24521   2.24974   2.25227
 Alpha virt. eigenvalues --    2.25875   2.26701   2.26833   2.27197   2.27723
 Alpha virt. eigenvalues --    2.28285   2.29605   2.30298   2.31305   2.31619
 Alpha virt. eigenvalues --    2.31625   2.32865   2.34037   2.34286   2.34594
 Alpha virt. eigenvalues --    2.35236   2.35309   2.35694   2.36194   2.36981
 Alpha virt. eigenvalues --    2.37168   2.37490   2.38745   2.39114   2.39642
 Alpha virt. eigenvalues --    2.39990   2.41034   2.41163   2.41835   2.42410
 Alpha virt. eigenvalues --    2.43158   2.43535   2.44186   2.44313   2.44805
 Alpha virt. eigenvalues --    2.45376   2.46287   2.46806   2.47352   2.47857
 Alpha virt. eigenvalues --    2.48378   2.48763   2.50456   2.51323   2.51923
 Alpha virt. eigenvalues --    2.52929   2.53027   2.54227   2.55071   2.55673
 Alpha virt. eigenvalues --    2.56308   2.57127   2.59239   2.60087   2.60346
 Alpha virt. eigenvalues --    2.61321   2.62222   2.62880   2.63046   2.63437
 Alpha virt. eigenvalues --    2.63915   2.64801   2.66105   2.67103   2.67823
 Alpha virt. eigenvalues --    2.68926   2.69824   2.70683   2.71758   2.72283
 Alpha virt. eigenvalues --    2.73468   2.74436   2.76012   2.76447   2.77401
 Alpha virt. eigenvalues --    2.77781   2.78063   2.78202   2.78845   2.80393
 Alpha virt. eigenvalues --    2.80703   2.81864   2.82666   2.82989   2.83380
 Alpha virt. eigenvalues --    2.83673   2.84103   2.84870   2.85457   2.86755
 Alpha virt. eigenvalues --    2.87013   2.87647   2.87871   2.88090   2.88888
 Alpha virt. eigenvalues --    2.89594   2.90264   2.90761   2.90855   2.91567
 Alpha virt. eigenvalues --    2.91733   2.92535   2.92791   2.93694   2.94190
 Alpha virt. eigenvalues --    2.94738   2.94910   2.95519   2.95828   2.96332
 Alpha virt. eigenvalues --    2.97117   2.97501   2.98274   2.98732   2.99576
 Alpha virt. eigenvalues --    3.00302   3.00571   3.00963   3.01401   3.01943
 Alpha virt. eigenvalues --    3.02577   3.03118   3.03770   3.04338   3.04695
 Alpha virt. eigenvalues --    3.05636   3.06218   3.06782   3.07092   3.08952
 Alpha virt. eigenvalues --    3.09155   3.09683   3.10148   3.10361   3.10854
 Alpha virt. eigenvalues --    3.11328   3.12355   3.12780   3.13634   3.13815
 Alpha virt. eigenvalues --    3.14584   3.15054   3.15334   3.15633   3.17178
 Alpha virt. eigenvalues --    3.17568   3.18675   3.19802   3.20653   3.21048
 Alpha virt. eigenvalues --    3.21215   3.21753   3.22379   3.23228   3.23689
 Alpha virt. eigenvalues --    3.23831   3.24295   3.24884   3.25739   3.25868
 Alpha virt. eigenvalues --    3.26220   3.26946   3.27500   3.28346   3.28874
 Alpha virt. eigenvalues --    3.29718   3.30103   3.30832   3.31413   3.32006
 Alpha virt. eigenvalues --    3.32309   3.32892   3.33050   3.33373   3.34445
 Alpha virt. eigenvalues --    3.34760   3.34999   3.35376   3.35805   3.36426
 Alpha virt. eigenvalues --    3.36976   3.37331   3.37372   3.37764   3.38369
 Alpha virt. eigenvalues --    3.38980   3.39200   3.40294   3.40634   3.41401
 Alpha virt. eigenvalues --    3.41476   3.42157   3.42835   3.43168   3.43399
 Alpha virt. eigenvalues --    3.44072   3.44247   3.44760   3.45026   3.45261
 Alpha virt. eigenvalues --    3.45686   3.46117   3.46632   3.47541   3.47747
 Alpha virt. eigenvalues --    3.48802   3.49195   3.49456   3.50210   3.50789
 Alpha virt. eigenvalues --    3.50980   3.51883   3.52215   3.52368   3.52589
 Alpha virt. eigenvalues --    3.53335   3.53567   3.53839   3.54339   3.54616
 Alpha virt. eigenvalues --    3.55136   3.56057   3.56395   3.56577   3.57997
 Alpha virt. eigenvalues --    3.58460   3.58518   3.58920   3.59135   3.59900
 Alpha virt. eigenvalues --    3.60206   3.60421   3.60982   3.61448   3.61703
 Alpha virt. eigenvalues --    3.62231   3.62323   3.62656   3.63178   3.63414
 Alpha virt. eigenvalues --    3.63803   3.64490   3.64519   3.65386   3.65603
 Alpha virt. eigenvalues --    3.65929   3.66081   3.66659   3.67022   3.67267
 Alpha virt. eigenvalues --    3.67781   3.68334   3.68520   3.68870   3.69207
 Alpha virt. eigenvalues --    3.69815   3.70041   3.70232   3.70807   3.70978
 Alpha virt. eigenvalues --    3.71382   3.72089   3.72268   3.72358   3.72919
 Alpha virt. eigenvalues --    3.73491   3.73953   3.74479   3.74858   3.75011
 Alpha virt. eigenvalues --    3.75445   3.75958   3.76654   3.77211   3.77784
 Alpha virt. eigenvalues --    3.78226   3.78613   3.78728   3.79392   3.80121
 Alpha virt. eigenvalues --    3.80450   3.81517   3.81666   3.82544   3.82614
 Alpha virt. eigenvalues --    3.82946   3.83388   3.83676   3.84481   3.84663
 Alpha virt. eigenvalues --    3.85194   3.85532   3.86528   3.86843   3.87413
 Alpha virt. eigenvalues --    3.87718   3.88721   3.89273   3.89640   3.90503
 Alpha virt. eigenvalues --    3.90732   3.91421   3.92251   3.92870   3.93420
 Alpha virt. eigenvalues --    3.93769   3.93958   3.95401   3.95939   3.96626
 Alpha virt. eigenvalues --    3.97293   3.98400   3.99604   3.99878   4.00587
 Alpha virt. eigenvalues --    4.01241   4.01655   4.03607   4.04800   4.05147
 Alpha virt. eigenvalues --    4.05930   4.06886   4.07553   4.08900   4.09616
 Alpha virt. eigenvalues --    4.10194   4.10720   4.11631   4.12941   4.14778
 Alpha virt. eigenvalues --    4.15282   4.15589   4.16525   4.16945   4.17476
 Alpha virt. eigenvalues --    4.18175   4.18393   4.19437   4.20039   4.20525
 Alpha virt. eigenvalues --    4.20710   4.22310   4.22632   4.24031   4.25100
 Alpha virt. eigenvalues --    4.25654   4.29368   4.30523   4.31824   4.33867
 Alpha virt. eigenvalues --    4.34900   4.35282   4.37505   4.41593   4.42160
 Alpha virt. eigenvalues --    4.44058   4.45896   4.49520   4.51894   4.52423
 Alpha virt. eigenvalues --    4.53614   4.53876   4.56163   4.60890   4.62086
 Alpha virt. eigenvalues --    4.67007   4.77230   4.80146   4.82675   4.83922
 Alpha virt. eigenvalues --    4.87127   4.89568   4.89740   5.00178   5.01942
 Alpha virt. eigenvalues --    5.03564   5.05717   5.06969   5.08227   5.10255
 Alpha virt. eigenvalues --    5.12216   5.13540   5.15332   5.15572   5.15875
 Alpha virt. eigenvalues --    5.17631   5.18226   5.18658   5.19430   5.19692
 Alpha virt. eigenvalues --    5.20831   5.20937   5.21919   5.24729   5.25854
 Alpha virt. eigenvalues --    5.28424   5.30095   5.34558   5.35492   5.35760
 Alpha virt. eigenvalues --    5.40286   5.40896   5.44460   5.45942   5.48440
 Alpha virt. eigenvalues --    5.53876   5.57553   5.59240   5.67710   5.71609
 Alpha virt. eigenvalues --    5.79619   5.95333   6.01391   6.02702   6.15294
 Alpha virt. eigenvalues --    6.20324   6.23351   6.81601   6.83400   6.83830
 Alpha virt. eigenvalues --    6.84553   6.86386   6.88732   6.89369   6.91958
 Alpha virt. eigenvalues --    6.92769   6.95255   6.97833   6.98488   7.01033
 Alpha virt. eigenvalues --    7.03371   7.04857   7.06605   7.07016   7.08093
 Alpha virt. eigenvalues --    7.10211   7.13363   7.17112   7.24634   7.26996
 Alpha virt. eigenvalues --    7.27151   7.28586   7.29949   7.31404   7.31709
 Alpha virt. eigenvalues --    7.32165   7.33110   7.34234   7.35363   7.48544
 Alpha virt. eigenvalues --    7.55526   7.58134   8.25688  17.53463  17.58709
 Alpha virt. eigenvalues --   17.62516  23.74855  23.75911  23.76228  23.77362
 Alpha virt. eigenvalues --   23.89683  23.92732  23.94434  23.95086  23.97945
 Alpha virt. eigenvalues --   23.98578  24.00630  24.01219  24.01718  24.02180
 Alpha virt. eigenvalues --   24.02820  24.03768  24.04215  24.05258  24.06263
 Alpha virt. eigenvalues --   24.07924  24.08531  24.11725  24.12210  24.13021
 Alpha virt. eigenvalues --   24.13078  24.14875  24.16769  24.19271  24.20033
 Alpha virt. eigenvalues --   24.22521  24.22779  24.24478  35.65283  35.69250
 Alpha virt. eigenvalues --   35.71628  50.00478  50.03732  50.04757  50.05996
 Alpha virt. eigenvalues --   50.06854  50.11006  50.12339 189.44116
          Condensed to atoms (all electrons):
 Mulliken charges:
               1
     1  C   -0.664063
     2  H    0.173410
     3  H    0.147556
     4  H    0.169898
     5  C    0.633745
     6  C   -0.480772
     7  H    0.148270
     8  H    0.154293
     9  H    0.145683
    10  C   -0.579133
    11  H    0.158608
    12  H    0.154276
    13  H    0.173519
    14  O   -0.297002
    15  C    0.236701
    16  O   -0.428301
    17  N   -0.560685
    18  H    0.313008
    19  C    0.575115
    20  C   -0.330627
    21  N   -0.180490
    22  H    0.415673
    23  O   -0.394674
    24  H    0.194319
    25  C   -0.890754
    26  H    0.200252
    27  H    0.190582
    28  C    0.480587
    29  C   -0.079211
    30  C   -0.262511
    31  H    0.190383
    32  H    0.149248
    33  C   -0.362364
    34  H    0.229289
    35  C   -0.074369
    36  H    0.180635
    37  C   -0.054619
    38  O   -0.360524
    39  C   -0.033501
    40  C   -0.263050
    41  C   -0.159960
    42  H    0.196281
    43  H    0.186414
    44  C   -0.022767
    45  H    0.204405
    46  C   -0.420775
    47  H    0.207601
    48  C    0.428821
    49  C    0.009701
    50  O   -0.400520
    51  C   -0.242580
    52  H    0.211637
    53  H    0.187095
    54  N   -0.096614
    55  H    0.379598
    56  C   -0.431551
    57  O   -0.433753
    58  C   -0.056157
    59  H    0.188911
    60  C    0.424599
    61  C   -0.104539
    62  H    0.170378
    63  C   -0.321673
    64  H    0.150361
    65  C   -0.540349
    66  H    0.188652
    67  C    0.039797
    68  H    0.185003
    69  C    0.030342
    70  H    0.670345
    71  C   -0.512249
    72  H    0.155640
    73  H    0.177130
    74  H    0.206298
    75  S    0.675898
    76  C   -0.594749
    77  H    0.211340
    78  H    0.161764
    79  H    0.186723
    80  O   -0.614902
 Sum of Mulliken charges =  -0.00000
 Mulliken charges with hydrogens summed into heavy atoms:
               1
     1  C   -0.173199
     5  C    0.633745
     6  C   -0.032526
    10  C   -0.092731
    14  O   -0.297002
    15  C    0.236701
    16  O   -0.428301
    17  N   -0.247677
    19  C    0.769434
    20  C   -0.330627
    21  N    0.235183
    23  O   -0.394674
    25  C   -0.499920
    28  C    0.480587
    29  C    0.070038
    30  C   -0.072128
    33  C   -0.133074
    35  C    0.106267
    37  C   -0.054619
    38  O   -0.360524
    39  C   -0.033501
    40  C   -0.076636
    41  C    0.036321
    44  C    0.181638
    46  C   -0.213174
    48  C    0.428821
    49  C    0.009701
    50  O   -0.400520
    51  C    0.156152
    54  N    0.282984
    56  C   -0.431551
    57  O   -0.433753
    58  C    0.132754
    60  C    0.424599
    61  C    0.065839
    63  C   -0.171312
    65  C   -0.351697
    67  C    0.224800
    69  C    0.700687
    71  C    0.026818
    75  S    0.675898
    76  C   -0.034922
    80  O   -0.614902
 Electronic spatial extent (au):  <R**2>=          24535.5821
 Charge=             -0.0000 electrons
 Dipole moment (field-independent basis, Debye):
    X=             -3.0606    Y=              2.0487    Z=             -3.2900  Tot=              4.9385
 Quadrupole moment (field-independent basis, Debye-Ang):
   XX=           -201.9005   YY=           -264.4411   ZZ=           -273.0087
   XY=              6.1486   XZ=            -27.9914   YZ=             12.9432
 Traceless Quadrupole moment (field-independent basis, Debye-Ang):
   XX=             44.5496   YY=            -17.9910   ZZ=            -26.5585
   XY=              6.1486   XZ=            -27.9914   YZ=             12.9432
 Octapole moment (field-independent basis, Debye-Ang**2):
  XXX=           -129.6004  YYY=           -107.4723  ZZZ=            -43.7159  XYY=             -7.4802
  XXY=            -34.7738  XXZ=              3.4140  XZZ=             13.3141  YZZ=            -19.9246
  YYZ=            -18.4455  XYZ=             22.5517
 Hexadecapole moment (field-independent basis, Debye-Ang**3):
 XXXX=         -17092.6276 YYYY=          -7532.8739 ZZZZ=          -5774.1958 XXXY=            302.1789
 XXXZ=           -743.7027 YYYX=            -11.4047 YYYZ=            141.3262 ZZZX=           -274.4490
 ZZZY=             55.4729 XXYY=          -4166.1090 XXZZ=          -4372.3412 YYZZ=          -2138.6110
 XXYZ=            284.6597 YYXZ=            -82.3342 ZZXY=             67.0974
 N-N= 5.765320023347D+03 E-N=-1.698762129521D+04  KE= 2.322472446290D+03
 Calculating spin-rotation constants.
 Leave Link  601 at Tue Aug 10 21:39:30 2021, MaxMem=  6442450944 cpu:             360.3 elap:             257.5
 (Enter /software/sse/easybuild/prefix/software/Gaussian/16.C.01-avx2-nsc1/g16/l9999.exe)
 Unable to Open any file for archive entry.
 1\1\NSC-N351\SP\RB3LYP\6-311++G(2d,p)\C32H37N3O7S1\X_DANSE\10-Aug-2021
 \0\\#P B3LYP/6-311++G(2d,p) scf=tight Int=Ultrafine scrf(Solvent=DiMet
 hylSulfoxide) NMR\\8e\\0,1\C,0,19.384001,29.327999,28.618999\H,0,18.44
 8999,29.677999,28.164\H,0,19.462999,28.35,28.127001\H,0,19.33,29.146,2
 9.698999\C,0,20.57,30.337999,28.330999\C,0,20.615,30.658001,26.777\H,0
 ,21.591,31.017,26.427999\H,0,20.333,29.790001,26.169001\H,0,19.884001,
 31.447001,26.565001\C,0,20.466999,31.639999,29.093\H,0,20.188999,31.53
 0001,30.148001\H,0,21.423,32.162998,28.966999\H,0,19.693001,32.310001,
 28.700001\O,0,21.789,29.566,28.631001\C,0,22.129,29.073999,29.843\O,0,
 21.530001,29.386,30.860001\N,0,23.353001,28.402,29.712\H,0,23.735001,2
 8.368999,28.775\C,0,23.937,27.738001,30.972\C,0,24.657,28.599001,31.98
 3\N,0,24.822001,29.92,31.563\H,0,24.372,30.1,30.674\O,0,24.844999,28.3
 13,33.118\H,0,23.059,27.35,31.504\C,0,24.85,26.565001,30.603001\H,0,24
 .400999,25.820999,29.933001\H,0,25.125999,26.089001,31.552\C,0,26.136,
 27.069,29.896999\C,0,26.218,27.448,28.542999\C,0,27.302,28.077,27.9559
 99\H,0,27.259001,28.17,26.875\H,0,25.362,27.400999,27.875999\C,0,27.26
 3,27.313,30.716999\H,0,27.223,27.01,31.759001\C,0,28.370001,28.049999,
 30.184\H,0,29.237,28.361,30.76\C,0,28.407,28.396,28.771\O,0,29.399,29.
 139999,28.165001\C,0,29.444,30.424999,28.5\C,0,30.237,30.799,29.547001
 \C,0,30.021,31.965,30.201\H,0,30.658001,32.223,31.042\H,0,31.107,30.19
 7001,29.792999\C,0,28.370001,31.162001,28.134001\H,0,27.691999,30.7269
 99,27.406\C,0,28.156,32.451,28.723\H,0,27.292999,33.014999,28.381001\C
 ,0,28.934,32.755001,29.804001\C,0,28.674,33.973,30.604\O,0,29.614,34.6
 16001,31.079\C,0,27.122,34.273998,30.855\H,0,27.082001,35.264999,31.32
 3\H,0,26.653999,34.319,29.864\N,0,26.549999,33.216999,31.681999\H,0,26
 .868,33.216999,32.644001\C,0,25.902,32.146999,31.17\O,0,25.487,32.0750
 01,30.042\C,0,25.612,31.02,32.157001\H,0,24.882999,31.412001,32.875999
 \C,0,26.872,30.548,32.956001\C,0,26.77,30.438,34.362\H,0,25.860001,30.
 794001,34.835999\C,0,27.799,29.878,35.104\H,0,27.669001,29.799,36.1790
 01\C,0,29.065001,29.65,34.541\H,0,29.951,29.528,35.158001\C,0,29.163,2
 9.858,33.155998\H,0,30.117001,29.683001,32.667\C,0,28.135,30.297001,32
 .311001\H,0,28.257,30.427,31.24\C,0,29.781,35.861,34.419998\H,0,30.618
 ,36.147999,35.068001\H,0,28.997999,36.619999,34.544998\H,0,30.014999,3
 5.759998,33.353001\S,0,29.127001,34.346001,35.014999\C,0,30.391001,33.
 297001,34.272999\H,0,30.724001,33.595001,33.271\H,0,29.989,32.301998,3
 4.047001\H,0,31.280001,33.324001,34.915001\O,0,27.93,34.235001,34.1559
 98\\Version=ES64L-G16RevC.01\State=1-A\HF=-2331.242886\RMSD=3.606e-09\
 Dipole=1.6328999,0.6546476,-0.8246702\Quadrupole=3.6451009,-5.8089513,
 2.1638505,4.5118205,34.2069073,12.7744349\PG=C01 [X(C32H37N3O7S1)]\\@
 The archive entry for this job was punched.


 WE ARE PERHAPS NOT FAR REMOVED FROM THE TIME WHEN WE SHALL BE ABLE TO SUBMIT
 THE BULK OF CHEMICAL PHENOMENA TO CALCULATION.

            -- JOSEPH LOUIS GAY-LUSSAC
               MEMOIRES DE LA SOCIETE D'ARCUEIL, 2, 207 (1808)
 Job cpu time:       0 days 22 hours 59 minutes 24.1 seconds.
 Elapsed time:       0 days  2 hours 23 minutes  7.3 seconds.
 File lengths (MBytes):  RWF=   1586 Int=      0 D2E=      0 Chk=    164 Scr=      1
 Normal termination of Gaussian 16 at Tue Aug 10 21:39:31 2021.

=== POST-JOB OUTPUT FROM THE NSC g16 WRAPPER ===
Gaussian calculation successful!
==============================================

